64
Lattice="10.862 0.0 0.0 0.0 10.862 0.0 0.0 0.0 10.862" Properties=species:S:1:pos:R:3:atomic_forces_forces:R:3:kliff_descriptor_symmetry_function_descriptors:R:51 energy_energy=-263.85375 energy_per_atom=F kliff_descriptor_symmetry_function_cut_name=cos kliff_descriptor_symmetry_function_cut_dists="{\"Si-Si\": 4.0}" kliff_descriptor_symmetry_function_hyperparams=set51 pbc="T T T"
Si      10.75020000       0.04682960      10.98780000       0.76980100      -0.58519600      -1.69297000       1.41025585       1.16073883       0.93744473       0.68307164       0.40575704       0.17793784       0.02304655       0.00039777       0.00355437       0.01547637       0.00139305       0.01331505       0.00271962       0.01190892       0.00106155       0.01025085       0.00171450       0.00758091       0.00066448       0.00653088       0.00089901       0.00402913       0.00034492       0.00347504       0.00011973       0.00274410       0.00000047       0.00078129       0.00035769       0.00163399       0.00013523       0.00141153       0.00004668       0.00111562       0.00000018       0.00031736       0.00005675       0.00026914       0.00002081       0.00023320       0.00000710       0.00018462       0.00000003       0.00005243       0.00000228       0.00001151       0.00000079       0.00001002       0.00000026       0.00000796       0.00000225
Si       2.80294000       2.59682000      -0.05179520       0.20978000       0.99246800       0.13273800       1.55784187       1.29915832       1.06488610       0.79352577       0.48935382       0.22769961       0.03403214       0.00076763       0.01235259       0.02322222       0.00697633       0.01784596       0.00957598       0.01797386       0.00540931       0.01380719       0.00617394       0.01155750       0.00348874       0.00887230       0.00333998       0.00622998       0.00188816       0.00477817       0.00077820       0.00351865       0.00000523       0.00101545       0.00138889       0.00257813       0.00078561       0.00197485       0.00032354       0.00145272       0.00000216       0.00041881       0.00024034       0.00044224       0.00013607       0.00033797       0.00005595       0.00024811       0.00000037       0.00007138       0.00001118       0.00002032       0.00000634       0.00001548       0.00000260       0.00001133       0.00000325
Si       0.14535700       2.73043000       2.74837000       0.67763500      -1.25548000       0.38675000       1.49516489       1.23942356       1.00923163       0.74477098       0.45215870       0.20550526       0.02917945       0.00061213       0.00868349       0.02141596       0.00448184       0.01721430       0.00674527       0.01658472       0.00348301       0.01332246       0.00436504       0.01067509       0.00225569       0.00856574       0.00237474       0.00576357       0.00122852       0.00461735       0.00046769       0.00349266       0.00000243       0.00104723       0.00099635       0.00239143       0.00051626       0.00191135       0.00019591       0.00144293       0.00000099       0.00043242       0.00017602       0.00041288       0.00009151       0.00032837       0.00003451       0.00024687       0.00000017       0.00007390       0.00000856       0.00001926       0.00000448       0.00001517       0.00000167       0.00001132       0.00000338
Si       2.75579000      10.83130000       2.63552000       1.29888000      -0.30364300       0.08623630       1.39664347       1.15492007       0.93688549       0.68643680       0.41072803       0.18181975       0.02410480       0.00044339       0.00400355       0.01078184       0.00208037       0.00885866       0.00307625       0.00828437       0.00159874       0.00680686       0.00195339       0.00526061       0.00101541       0.00432262       0.00103459       0.00278662       0.00053793       0.00228996       0.00021667       0.00178228       0.00000120       0.00056042       0.00041750       0.00112499       0.00021714       0.00092463       0.00008747       0.00071987       0.00000048       0.00022671       0.00006809       0.00018377       0.00003542       0.00015110       0.00001427       0.00011772       0.00000008       0.00003718       0.00000286       0.00000776       0.00000149       0.00000639       0.00000060       0.00000498       0.00000158
Si       1.47887000       1.32635000       1.29194000      -1.41485000       0.21310400       0.89630500       1.50424983       1.25146147       1.02274339       0.75840938       0.46362928       0.21266460       0.03075173       0.00065986       0.00766896       0.01715431       0.00421215       0.01369750       0.00590383       0.01321721       0.00324218       0.01055556       0.00376102       0.00843267       0.00206485       0.00673650       0.00200088       0.00449605       0.00109805       0.00359323       0.00046489       0.00272804       0.00000367       0.00078936       0.00081249       0.00183171       0.00044559       0.00146481       0.00018870       0.00111263       0.00000149       0.00032202       0.00013413       0.00030453       0.00007345       0.00024385       0.00003112       0.00018540       0.00000025       0.00005368       0.00000576       0.00001325       0.00000314       0.00001063       0.00000133       0.00000810       0.00000235
Si       3.99447000       4.03710000       1.37209000       0.44016200       0.19787600      -0.26757000       1.53079721       1.26374336       1.02524671       0.75339854       0.45516374       0.20571074       0.02873554       0.00056537       0.00891317       0.02984481       0.00424596       0.02517760       0.00688584       0.02316221       0.00327358       0.01954995       0.00441365       0.01496470       0.00209081       0.01264186       0.00236875       0.00812202       0.00111636       0.00686963       0.00043594       0.00542484       0.00000242       0.00167013       0.00097428       0.00339534       0.00045567       0.00287674       0.00017747       0.00227392       0.00000098       0.00069977       0.00016516       0.00059503       0.00007601       0.00050588       0.00002944       0.00040063       0.00000016       0.00012319       0.00000745       0.00002849       0.00000332       0.00002436       0.00000127       0.00001936       0.00000595
Si       1.45719000       4.16079000       4.07804000      -1.35168000      -0.71571500      -0.84911500       1.62766038       1.36321423       1.12306979       0.84370183       0.52793156       0.25188638       0.04027412       0.00105126       0.01895948       0.03129638       0.01120958       0.02354648       0.01479493       0.02441935       0.00874802       0.01837244       0.00964814       0.01592363       0.00570539       0.01198087       0.00530387       0.00875537       0.00313668       0.00658818       0.00136231       0.00482558       0.00001091       0.00141386       0.00225703       0.00372868       0.00133482       0.00280647       0.00057980       0.00205631       0.00000465       0.00060305       0.00040920       0.00067815       0.00024194       0.00051089       0.00010511       0.00037468       0.00000084       0.00011013       0.00002068       0.00003463       0.00001221       0.00002616       0.00000531       0.00001923       0.00000568
Si       4.16975000       1.38468000       4.06492000      -0.71396500       0.07065690      -0.62790900       1.41828525       1.16952286       0.94633453       0.69131075       0.41213281       0.18155522       0.02368665       0.00040998       0.00311711       0.01477861       0.00124966       0.01291115       0.00238769       0.01138689       0.00095350       0.00995271       0.00150817       0.00726551       0.00059818       0.00635551       0.00079303       0.00387472       0.00031149       0.00339318       0.00011928       0.00274485       0.00000079       0.00087077       0.00031684       0.00157957       0.00012268       0.00138541       0.00004677       0.00112194       0.00000031       0.00035666       0.00005071       0.00026320       0.00001906       0.00023154       0.00000720       0.00018791       0.00000005       0.00005999       0.00000207       0.00001153       0.00000074       0.00001020       0.00000027       0.00000831       0.00000267
Si       5.50721000       0.12454000      10.69670000       0.63364900      -0.60128400       1.66169000       1.43867477       1.18690674       0.96127197       0.70362441       0.42144678       0.18755528       0.02535115       0.00048683       0.00568011       0.01811015       0.00261204       0.01504208       0.00438073       0.01398008       0.00201329       0.01161265       0.00279954       0.00894884       0.00128522       0.00743452       0.00149599       0.00479372       0.00068570       0.00398343       0.00024815       0.00306137       0.00000123       0.00085829       0.00061136       0.00196645       0.00027955       0.00163464       0.00010093       0.00125642       0.00000050       0.00035208       0.00010223       0.00033165       0.00004650       0.00027592       0.00001671       0.00021215       0.00000008       0.00005940       0.00000449       0.00001482       0.00000202       0.00001236       0.00000072       0.00000951       0.00000266
Si       8.21151000       2.72239000      10.83000000      -0.16796600      -0.12490800      -0.43605400       1.53673781       1.27683350       1.04257910       0.77275291       0.47263642       0.21723897       0.03153040       0.00067145       0.01265033       0.02429398       0.00671303       0.01835668       0.00986355       0.01879164       0.00524089       0.01416898       0.00642474       0.01207172       0.00342120       0.00906818       0.00352790       0.00650006       0.00188433       0.00485649       0.00068808       0.00341039       0.00000273       0.00090613       0.00150044       0.00268717       0.00080485       0.00199158       0.00029297       0.00138780       0.00000113       0.00036754       0.00027273       0.00046099       0.00014752       0.00033578       0.00005337       0.00023003       0.00000019       0.00006048       0.00001401       0.00002136       0.00000768       0.00001503       0.00000275       0.00000994       0.00000257
Si       5.46724000       2.78194000       2.65964000      -0.36952600      -0.55849700       0.36928000       1.52552922       1.26958003       1.03816861       0.77074512       0.47221062       0.21731411       0.03156021       0.00067134       0.00965765       0.01988780       0.00533856       0.01556871       0.00747120       0.01532911       0.00413227       0.01199018       0.00480021       0.00978648       0.00265754       0.00764381       0.00258489       0.00522274       0.00143301       0.00407086       0.00058182       0.00303655       0.00000363       0.00090116       0.00106842       0.00213067       0.00059345       0.00165570       0.00024053       0.00123203       0.00000148       0.00036529       0.00018301       0.00035525       0.00010205       0.00027429       0.00004122       0.00020305       0.00000025       0.00006008       0.00000842       0.00001554       0.00000473       0.00001185       0.00000190       0.00000869       0.00000256
Si       8.10684000       0.06505400       2.76625000       0.83716900      -0.36360900      -0.19787600       1.46581081       1.21483247       0.98846638       0.72803307       0.43986644       0.19784316       0.02713126       0.00051564       0.00591914       0.01535179       0.00303788       0.01247054       0.00454777       0.01180126       0.00233331       0.00958681       0.00288728       0.00749932       0.00148053       0.00609257       0.00152872       0.00397591       0.00078325       0.00323045       0.00031163       0.00246006       0.00000184       0.00069247       0.00061651       0.00160658       0.00031549       0.00130556       0.00012537       0.00099415       0.00000074       0.00027958       0.00010037       0.00026263       0.00005123       0.00021349       0.00002031       0.00016254       0.00000012       0.00004563       0.00000420       0.00001108       0.00000213       0.00000901       0.00000084       0.00000686       0.00000192
Si       6.89898000       1.48823000       1.38563000      -1.27390000      -1.38945000      -1.14269000       1.51128670       1.24957703       1.01499842       0.74679949       0.45185990       0.20483366       0.02907065       0.00060874       0.00734879       0.02562832       0.00329522       0.02157474       0.00567825       0.01995980       0.00253406       0.01681562       0.00364142       0.01297617       0.00161149       0.01094624       0.00195652       0.00710684       0.00085538       0.00600570       0.00033809       0.00463590       0.00000287       0.00118173       0.00080673       0.00301166       0.00034634       0.00255127       0.00013607       0.00197105       0.00000115       0.00050000       0.00013787       0.00054353       0.00005692       0.00046258       0.00002206       0.00035792       0.00000019       0.00008993       0.00000637       0.00002756       0.00000243       0.00002363       0.00000092       0.00001832       0.00000453
Si       9.49545000       3.85232000       1.51295000       0.48764000       2.29329000      -1.76373000       1.54510693       1.27940451       1.04101021       0.76806884       0.46712661       0.21371820       0.03112200       0.00069043       0.01066625       0.03028994       0.00497035       0.02459404       0.00825887       0.02364356       0.00383437       0.01921906       0.00531484       0.01542934       0.00245154       0.01256604       0.00286881       0.00849355       0.00131088       0.00693562       0.00047412       0.00516575       0.00000262       0.00121539       0.00119005       0.00362408       0.00053621       0.00297023       0.00019294       0.00221722       0.00000106       0.00052020       0.00020546       0.00066214       0.00008983       0.00054651       0.00003196       0.00040969       0.00000017       0.00009561       0.00000960       0.00003415       0.00000396       0.00002851       0.00000138       0.00002151       0.00000498
Si       6.87449000       4.03482000       3.97441000      -0.62958600       0.75871600       0.75345700       1.53514307       1.27571015       1.04164694       0.77188032       0.47182384       0.21668638       0.03143152       0.00067094       0.01027878       0.02334558       0.00535486       0.01842166       0.00796576       0.01809902       0.00414737       0.01428064       0.00513372       0.01167291       0.00267000       0.00920918       0.00277654       0.00632070       0.00144177       0.00498592       0.00055964       0.00367236       0.00000363       0.00095306       0.00115486       0.00263418       0.00059825       0.00207758       0.00023131       0.00152912       0.00000148       0.00039563       0.00020031       0.00045911       0.00010324       0.00036204       0.00003960       0.00026610       0.00000024       0.00006843       0.00000941       0.00002180       0.00000480       0.00001719       0.00000182       0.00001261       0.00000321
Si       9.60779000       1.37494000       4.10300000      -0.56620600      -0.10196000       0.53057900       1.41389040       1.16423625       0.94048854       0.68527170       0.40675911       0.17794342       0.02279087       0.00037690       0.00315290       0.01529073       0.00112671       0.01326454       0.00242233       0.01181989       0.00086056       0.01025812       0.00153830       0.00758599       0.00054087       0.00658855       0.00081537       0.00408083       0.00028244       0.00354790       0.00009573       0.00280578       0.00000048       0.00077134       0.00032981       0.00168587       0.00011174       0.00146781       0.00003747       0.00116143       0.00000019       0.00031847       0.00005429       0.00028938       0.00001755       0.00025265       0.00000574       0.00020012       0.00000003       0.00005460       0.00000235       0.00001348       0.00000070       0.00001182       0.00000022       0.00000938       0.00000254
Si      10.83000000       5.33203000       0.06328860       0.51021300      -1.23835000       0.49703700       1.39709418       1.14607743       0.92241929       0.66891435       0.39444790       0.17109451       0.02157064       0.00035187       0.00318799       0.01617397       0.00110340       0.01408938       0.00244143       0.01242460       0.00084265       0.01082582       0.00154141       0.00788592       0.00052944       0.00687395       0.00080987       0.00417381       0.00027627       0.00364022       0.00008978       0.00289763       0.00000036       0.00083938       0.00032309       0.00168245       0.00010913       0.00146849       0.00003528       0.00116951       0.00000014       0.00033890       0.00005150       0.00027367       0.00001705       0.00023922       0.00000545       0.00019070       0.00000002       0.00005529       0.00000208       0.00001144       0.00000066       0.00001002       0.00000021       0.00000800       0.00000232
Si       2.62554000       8.02111000      -0.09482340       1.05990000      -0.01711750       1.49421000       1.54862009       1.28708884       1.05101102       0.77889004       0.47632236       0.21917712       0.03213037       0.00071167       0.01165181       0.02799331       0.00586919       0.02221069       0.00907252       0.02193456       0.00455670       0.01741874       0.00589576       0.01441425       0.00294588       0.01146438       0.00322719       0.00801915       0.00160030       0.00639227       0.00060092       0.00470423       0.00000377       0.00117086       0.00136661       0.00347947       0.00066990       0.00278277       0.00024981       0.00205026       0.00000154       0.00050562       0.00024645       0.00066110       0.00011776       0.00053241       0.00004327       0.00039330       0.00000026       0.00009528       0.00001253       0.00003713       0.00000568       0.00003028       0.00000203       0.00002249       0.00000530
Si      -0.03280920       8.21764000       2.68200000       0.44486200      -2.27987000      -0.72578100       1.46905934       1.22035454       0.99578997       0.73694161       0.44940637       0.20585157       0.03004095       0.00068295       0.00812582       0.01657581       0.00459576       0.01304575       0.00628939       0.01278546       0.00356009       0.01005616       0.00404432       0.00817320       0.00229250       0.00642138       0.00218023       0.00437035       0.00123823       0.00342835       0.00052869       0.00258527       0.00000389       0.00077081       0.00090239       0.00178840       0.00051385       0.00139987       0.00021962       0.00105411       0.00000162       0.00031394       0.00015487       0.00030026       0.00008863       0.00023402       0.00003795       0.00017571       0.00000028       0.00005221       0.00000712       0.00001332       0.00000411       0.00001031       0.00000176       0.00000770       0.00000228
Si       2.71272000       5.45789000       2.75015000       2.23987000      -1.17742000       0.77438300       1.60620908       1.34522358       1.10826207       0.83262955       0.52113435       0.24892394       0.04018314       0.00110702       0.01893772       0.02873216       0.01121509       0.02100953       0.01482099       0.02235391       0.00878569       0.01631861       0.00971453       0.01450457       0.00576818       0.01055822       0.00537959       0.00792023       0.00320146       0.00574210       0.00134699       0.00408668       0.00000952       0.00123149       0.00231415       0.00334030       0.00138149       0.00240764       0.00058160       0.00170625       0.00000410       0.00051454       0.00042927       0.00059610       0.00025779       0.00042462       0.00010866       0.00029829       0.00000076       0.00009006       0.00002267       0.00002950       0.00001374       0.00002058       0.00000581       0.00001422       0.00000430
Si       1.46623000       6.60861000       1.40537000      -2.96054000       2.87204000      -1.07935000       1.47950054       1.22640547       0.99885390       0.73781965       0.44951640       0.20654373       0.03096038       0.00079618       0.00605567       0.02137195       0.00284594       0.01816221       0.00467400       0.01665824       0.00218627       0.01417051       0.00299207       0.01084622       0.00138788       0.00924204       0.00160396       0.00595458       0.00073497       0.00508560       0.00031002       0.00401433       0.00000374       0.00116036       0.00065949       0.00253339       0.00029668       0.00217057       0.00012476       0.00171625       0.00000152       0.00049552       0.00011225       0.00046164       0.00004850       0.00039790       0.00002024       0.00031560       0.00000025       0.00009093       0.00000517       0.00002391       0.00000206       0.00002080       0.00000084       0.00001657       0.00000476
Si       4.11714000       9.45760000       1.09999000      -0.00325291      -0.12121300       2.03648000       1.34297464       1.08951991       0.86661565       0.61805815       0.35531913       0.14865803       0.01734070       0.00024727       0.00292242       0.02105864       0.00054704       0.01868326       0.00225096       0.01628798       0.00041689       0.01445390       0.00143602       0.01046254       0.00026118       0.00928770       0.00076628       0.00563313       0.00013595       0.00500280       0.00002614       0.00398334       0.00000010       0.00104906       0.00031307       0.00232837       0.00005367       0.00206897       0.00000982       0.00164768       0.00000004       0.00043323       0.00005260       0.00039901       0.00000845       0.00035486       0.00000139       0.00028266       0.00000001       0.00007407       0.00000236       0.00001837       0.00000034       0.00001635       0.00000005       0.00001303       0.00000339
Si       1.28108000       9.52937000       3.93526000       0.78636500       0.78383700       1.04790000       1.51599583       1.26536644       1.03739582       0.77245236       0.47497989       0.21964736       0.03235803       0.00072113       0.01034489       0.01748111       0.00586703       0.01300325       0.00802076       0.01353735       0.00454879       0.01006537       0.00517281       0.00871244       0.00293349       0.00647313       0.00279986       0.00470202       0.00158768       0.00348985       0.00063786       0.00248293       0.00000423       0.00069383       0.00116541       0.00194904       0.00066079       0.00144442       0.00026491       0.00102618       0.00000174       0.00028687       0.00020221       0.00033536       0.00011463       0.00024778       0.00004576       0.00017552       0.00000029       0.00004911       0.00000947       0.00001548       0.00000537       0.00001138       0.00000213       0.00000802       0.00000225
Si       4.11495000       6.64399000       4.22902000      -0.90983900       0.91619600      -0.03874410       1.46981412       1.20585944       0.97129226       0.70598788       0.41892513       0.18428778       0.02427949       0.00043534       0.00753726       0.02857640       0.00311566       0.02415481       0.00583296       0.02226185       0.00240023       0.01882912       0.00375098       0.01448049       0.00153121       0.01226072       0.00202352       0.00793783       0.00081654       0.00673085       0.00028452       0.00520086       0.00000112       0.00135820       0.00083943       0.00336911       0.00033296       0.00286264       0.00011519       0.00221360       0.00000045       0.00057531       0.00014536       0.00061062       0.00005558       0.00052084       0.00001893       0.00040329       0.00000007       0.00010380       0.00000689       0.00003130       0.00000245       0.00002686       0.00000081       0.00002084       0.00000527
Si       5.37856000       5.32967000      -0.02404730      -0.84487900      -0.47806800      -0.13943900       1.56929995       1.30966203       1.07452514       0.80203103       0.49613573       0.23212380       0.03523851       0.00082684       0.01482329       0.02572940       0.00831203       0.01921815       0.01159156       0.01997299       0.00650354       0.01488496       0.00758915       0.01291106       0.00426206       0.00958397       0.00419829       0.00701470       0.00236089       0.00517730       0.00091915       0.00367027       0.00000548       0.00108511       0.00180537       0.00293869       0.00101714       0.00215047       0.00039377       0.00151186       0.00000227       0.00044581       0.00033600       0.00051852       0.00018999       0.00037252       0.00007274       0.00025711       0.00000039       0.00007536       0.00001807       0.00002535       0.00001028       0.00001756       0.00000386       0.00001167       0.00000338
Si       7.98871000       8.15649000      10.95880000       1.08805000      -0.65561200      -0.55345600       1.51918702       1.26787204       1.03947352       0.77416209       0.47627237       0.22039647       0.03246857       0.00071728       0.00977310       0.01649174       0.00567567       0.01239431       0.00755065       0.01270347       0.00438756       0.00954038       0.00483975       0.00810095       0.00281510       0.00607629       0.00259686       0.00431584       0.00151257       0.00323155       0.00063576       0.00234716       0.00000436       0.00069145       0.00106733       0.00175602       0.00062288       0.00131157       0.00026191       0.00095104       0.00000179       0.00028032       0.00018044       0.00029102       0.00010570       0.00021628       0.00004448       0.00015630       0.00000030       0.00004612       0.00000806       0.00001257       0.00000475       0.00000926       0.00000200       0.00000665       0.00000197
Si       5.39857000       7.98812000       2.81031000      -1.46484000       1.21271000      -1.74256000       1.42413823       1.18002868       0.95985292       0.70669326       0.42700750       0.19260598       0.02700778       0.00056084       0.00577562       0.01363717       0.00291162       0.01077317       0.00443661       0.01048887       0.00223548       0.00828773       0.00281576       0.00667194       0.00141752       0.00527370       0.00149017       0.00354262       0.00074922       0.00280167       0.00027759       0.00206043       0.00000212       0.00056270       0.00060061       0.00143497       0.00030138       0.00113574       0.00011146       0.00083578       0.00000085       0.00022851       0.00009768       0.00023594       0.00004881       0.00018706       0.00001798       0.00013784       0.00000014       0.00003777       0.00000408       0.00001008       0.00000202       0.00000802       0.00000074       0.00000592       0.00000163
Si       8.17623000       5.41942000       2.63100000      -0.48275900       1.45095000       0.33506900       1.37591979       1.12966123       0.90996636       0.66065878       0.39040234       0.17013364       0.02192595       0.00038935       0.00591131       0.01606005       0.00283431       0.01298305       0.00458712       0.01235929       0.00220503       0.00997720       0.00296323       0.00786963       0.00143067       0.00633707       0.00160821       0.00418486       0.00078117       0.00335782       0.00026956       0.00251245       0.00000065       0.00071941       0.00067247       0.00169910       0.00032943       0.00135607       0.00011375       0.00101022       0.00000027       0.00028870       0.00011802       0.00028089       0.00005877       0.00022164       0.00002032       0.00016356       0.00000005       0.00004655       0.00000568       0.00001215       0.00000290       0.00000937       0.00000101       0.00000679       0.00000192
Si       6.55236000       6.77374000       1.22030000       2.24004000      -0.84720700       2.22009000       1.54315414       1.27642714       1.03792924       0.76571297       0.46635690       0.21442724       0.03188104       0.00075020       0.00934046       0.03010972       0.00424445       0.02501371       0.00722128       0.02346017       0.00326826       0.01950715       0.00463577       0.01526499       0.00208311       0.01271233       0.00249470       0.00837257       0.00110933       0.00698719       0.00043194       0.00531011       0.00000422       0.00131033       0.00103122       0.00355723       0.00045135       0.00297735       0.00017502       0.00226613       0.00000172       0.00055689       0.00017730       0.00064654       0.00007494       0.00054418       0.00002877       0.00041532       0.00000028       0.00010119       0.00000831       0.00003341       0.00000327       0.00002837       0.00000123       0.00002174       0.00000521
Si       9.40301000       9.47471000       1.40365000      -0.41008700       0.95570500       0.09309000       1.50635002       1.25224443       1.02253864       0.75733769       0.46201878       0.21114147       0.03014854       0.00062173       0.00794993       0.01828990       0.00430616       0.01464613       0.00612878       0.01410920       0.00331903       0.01129946       0.00391383       0.00902038       0.00211876       0.00722531       0.00208930       0.00482320       0.00113045       0.00386435       0.00046489       0.00294252       0.00000313       0.00087694       0.00085255       0.00197293       0.00046092       0.00158131       0.00018936       0.00120451       0.00000126       0.00035947       0.00014212       0.00033060       0.00007671       0.00026519       0.00003145       0.00020215       0.00000021       0.00006049       0.00000620       0.00001458       0.00000334       0.00001171       0.00000136       0.00000894       0.00000269