64
Lattice="10.862 0.0 0.0 0.0 10.862 0.0 0.0 0.0 10.862" Properties=species:S:1:pos:R:3:atomic_forces_forces:R:3:ltau_forces_uq_score:R:1 co-id=CO_842528703335186340 energy_energy=-263.85375 energy_per_atom=F ltau_forces_uq_bins="_JSON [9.826158705261703e-06, 1.1027062170109953e-05, 1.2374733988202081e-05, 1.388711144604322e-05, 1.558432403465697e-05, 1.7488961369744564e-05, 1.9626373855691547e-05, 2.2025010095210678e-05, 2.4716795535485803e-05, 2.7737557390534585e-05, 3.1127501495435235e-05, 3.4931747439266745e-05, 3.92009290992939e-05, 4.399186856940476e-05, 4.9368332452677637e-05, 5.5401880584202616e-05, 6.217281848051923e-05, 6.977126619261002e-05, 7.82983577887071e-05, 8.786758743182653e-05, 9.860631996809534e-05, 0.00011065748613155361, 0.00012418148492831835, 0.00013935831852052977, 0.0001563899880250244, 0.00017550318211441527, 0.00019695229420541328, 0.00022102280839265498, 0.00024803509919425754, 0.0002783486956830725, 0.0003123670667585158, 0.00035054299125013993, 0.0003933845843281282, 0.00044146206043123326, 0.0004954153227255848, 0.0005559624801088134, 0.000623909405119375, 0.000700160459965258, 0.0007857305334337209, 0.0008817585488913106, 0.000989522623163398, 0.0011104570780553508, 0.001246171530935888, 0.0013984723184750493, 0.0015693865386831691, 0.0017611890312463712, 0.0019764326552623285, 0.0022179822673679007, 0.0024890528525018216, 0.0027932523148165534, 0.0031346294982791336, 0.003517728076107228, 0.003947647026299737, 0.004430108498181178, 0.0049715339732521865, 0.005579129734034302, 0.00626098277848512, 0.007026168456588584, 0.007884871261745434, 0.008848520384677058, 0.009929941834042498, 0.0111435291484686, 0.012505434972141823, 0.014033786043800957, 0.015748924460598036, 0.017673678428009317, 0.019833666099432202, 0.022257636549522425, 0.024977852419569537, 0.028030519327856575, 0.03145626776038425, 0.03530069385584423, 0.03961496628259934, 0.044456507285101664, 0.04988975696436252, 0.055987030964919623, 0.06282948298397104, 0.07050818491351256, 0.07912533899198845, 0.08879563809899231, 0.09964779229831235, 0.11182624194735377, 0.12549308017413968, 0.1408302103097339, 0.15804176699115657, 0.1773568331592601, 0.19903248911436056, 0.22335723421203718, 0.250654826741305, 0.2812885930932962, 0.31566626357475674, 0.3542453992302428, 0.3975394819030924, 0.44612474859288853, 0.5006478610735438, 0.5618345128533615, 0.6304990880342648, 0.7075555006279824, 0.794029358598705, 0.8910716145335489, 0.9999738846290095]" ltau_forces_uq_num_nearest_neighbors=1 ltau_forces_uq_index_type=IndexFlatL2 ltau_forces_uq_index_args=None pbc="T T T"
Si      10.75020000       0.04682960      10.98780000       0.76980100      -0.58519600      -1.69297000       0.53962407
Si       2.80294000       2.59682000      -0.05179520       0.20978000       0.99246800       0.13273800       0.53628555
Si       0.14535700       2.73043000       2.74837000       0.67763500      -1.25548000       0.38675000       0.49926881
Si       2.75579000      10.83130000       2.63552000       1.29888000      -0.30364300       0.08623630       0.51616019
Si       1.47887000       1.32635000       1.29194000      -1.41485000       0.21310400       0.89630500       0.47894697
Si       3.99447000       4.03710000       1.37209000       0.44016200       0.19787600      -0.26757000       0.47450001
Si       1.45719000       4.16079000       4.07804000      -1.35168000      -0.71571500      -0.84911500       0.46913159
Si       4.16975000       1.38468000       4.06492000      -0.71396500       0.07065690      -0.62790900       0.51627556
Si       5.50721000       0.12454000      10.69670000       0.63364900      -0.60128400       1.66169000       0.48782002
Si       8.21151000       2.72239000      10.83000000      -0.16796600      -0.12490800      -0.43605400       0.47067050
Si       5.46724000       2.78194000       2.65964000      -0.36952600      -0.55849700       0.36928000       0.51578775
Si       8.10684000       0.06505400       2.76625000       0.83716900      -0.36360900      -0.19787600       0.53979421
Si       6.89898000       1.48823000       1.38563000      -1.27390000      -1.38945000      -1.14269000       0.51327135
Si       9.49545000       3.85232000       1.51295000       0.48764000       2.29329000      -1.76373000       0.47966499
Si       6.87449000       4.03482000       3.97441000      -0.62958600       0.75871600       0.75345700       0.45546149
Si       9.60779000       1.37494000       4.10300000      -0.56620600      -0.10196000       0.53057900       0.46400969
Si      10.83000000       5.33203000       0.06328860       0.51021300      -1.23835000       0.49703700       0.54910432
Si       2.62554000       8.02111000      -0.09482340       1.05990000      -0.01711750       1.49421000       0.48538853
Si      -0.03280920       8.21764000       2.68200000       0.44486200      -2.27987000      -0.72578100       0.48840642
Si       2.71272000       5.45789000       2.75015000       2.23987000      -1.17742000       0.77438300       0.47391661
Si       1.46623000       6.60861000       1.40537000      -2.96054000       2.87204000      -1.07935000       0.53725620
Si       4.11714000       9.45760000       1.09999000      -0.00325291      -0.12121300       2.03648000       0.46645132
Si       1.28108000       9.52937000       3.93526000       0.78636500       0.78383700       1.04790000       0.48519291
Si       4.11495000       6.64399000       4.22902000      -0.90983900       0.91619600      -0.03874410       0.51633377
Si       5.37856000       5.32967000      -0.02404730      -0.84487900      -0.47806800      -0.13943900       0.46755223
Si       7.98871000       8.15649000      10.95880000       1.08805000      -0.65561200      -0.55345600       0.48351986
Si       5.39857000       7.98812000       2.81031000      -1.46484000       1.21271000      -1.74256000       0.46489599
Si       8.17623000       5.41942000       2.63100000      -0.48275900       1.45095000       0.33506900       0.50399826
Si       6.55236000       6.77374000       1.22030000       2.24004000      -0.84720700       2.22009000       0.48917032
Si       9.40301000       9.47471000       1.40365000      -0.41008700       0.95570500       0.09309000       0.51455631
Si       6.70915000       9.47638000       3.96773000       1.24157000       0.51465000       1.77464000       0.50598304
Si       9.51697000       6.89474000       4.13035000      -0.08130330      -1.27911000      -0.53820800       0.47448108
Si      10.92410000      10.80940000       5.50476000      -0.30186400       0.44569900       0.03839460       0.47135542
Si       2.73851000       2.83882000       5.32188000       0.89342700      -1.46504000       1.83985000       0.48311085
Si       0.07510880       2.70658000       8.11509000       0.20388100       1.85420000      -0.23657300       0.52459668
Si       2.66256000      -0.00599480       8.17644000       0.90800300      -1.70767000       0.00722322       0.44766123
Si       1.46303000       1.39261000       6.84171000      -0.50680800       0.14014600      -1.87387000       0.48545328
Si       3.96751000       4.28164000       6.76468000      -0.78574200      -0.69692500       0.44946400       0.52012113
Si       1.52308000       4.03370000       9.52569000      -2.16303000       0.11420700       0.31595900       0.48057258
Si       4.12547000       1.38228000       9.37999000      -0.06591810       0.34575300      -0.79963600       0.47857430
Si       5.56273000      10.95320000       5.44213000      -2.21437000      -2.15880000      -1.65984000       0.50925853
Si       8.10627000       2.74857000       5.42785000       1.51937000      -0.46180500      -0.01222980       0.48882865
Si       5.35517000       2.87754000       7.95369000      -0.03529090      -1.44487000       1.02460000       0.52200278
Si       8.15191000       0.13095900       8.11517000      -0.17125900      -1.54238000       0.28785600       0.50011468
Si       6.72574000       1.37554000       6.74868000       1.43834000       1.85523000       1.00495000       0.45391880
Si       9.52552000       4.17809000       6.76117000      -0.42647700      -1.72866000       0.65220200       0.50072946
Si       6.69861000       3.96999000       9.51227000       0.72614100       0.72143000      -0.50541100       0.49488274
Si       9.56031000       1.44442000       9.39987000      -0.25380100      -0.93567800       1.56058000       0.50063667
Si      10.93620000       5.37452000       5.40987000       0.02251140       2.67697000       1.08555000       0.50190737
Si       2.53637000       8.19549000       5.37937000       1.45513000      -1.51619000       0.63789200       0.51019805
Si      10.67360000       8.09906000       8.28130000       1.04335000      -1.12554000       0.63434100       0.54850484
Si       2.68473000       5.61678000       8.32695000       1.79592000      -2.36676000      -0.32610000       0.46248699
Si       1.40067000       6.80240000       7.05920000      -2.71666000       1.36130000      -3.33382000       0.49213840
Si       4.08299000       9.48380000       6.63950000      -0.85423200       1.35069000       0.90942200       0.48180123
Si       1.25546000       9.37761000       9.59093000      -0.67627900       2.26398000      -0.58323000       0.47289624
Si       4.14274000       6.79884000       9.56445000       0.14777800       0.53918300      -0.58903600       0.44213405
Si       5.56216000       5.28501000       5.52859000       0.01960190       1.20480000      -1.39986000       0.48395065
Si       8.13297000       8.22721000       5.50900000      -0.38965400      -0.20483100      -1.44412000       0.49711227
Si       5.37142000       8.19691000       8.09674000       0.93389900      -0.60922500       0.32586400       0.41633298
Si       8.03670000       5.39353000       8.15641000       0.65457700       0.25041800       0.50896500       0.49425686
Si       6.80052000       6.81738000       6.75878000      -0.48235000      -0.04938490       0.97607200       0.44931958
Si       9.49718000       9.44054000       6.89671000      -0.21128400       1.91100000      -0.72149200       0.51801237
Si       6.84004000       9.47142000       9.50324000      -0.58105600       1.34133000      -1.46135000       0.52720152
Si       9.36510000       6.68118000       9.67454000      -0.24627200       0.49895700      -0.60712200       0.46587701
