64
Lattice="10.862 0.0 0.0 0.0 10.862 0.0 0.0 0.0 10.862" Properties=species:S:1:pos:R:3:force:R:3:descriptors:R:10:atomic_forces_forces:R:3:quests_delta_entropy_score:R:1 PBC="1 1 1" Energy=-263.41265 energy_energy=-263.41265 quests_delta_entropy_bandwidth=0.015 quests_delta_entropy_approx=F quests_delta_entropy_num_nearest_neighbors=3 quests_delta_entropy_graph_neighbors=10 pbc="T T T"
Si      10.87020000      -0.10323000      10.87150000      -0.88655100       0.66580900       0.66663200       0.54259691       0.29507195       0.59669881       0.34352137       0.67412122       0.06689876       0.04742022       0.90513606       0.56864768       0.63188753      -0.88655100       0.66580900       0.66663200              inf
Si       2.65429000       2.76148000       0.12119900      -0.18204800      -0.14381100      -1.66213000       0.64667877       0.41115570       0.77742676       0.72141915       0.99313452       0.03157318       0.59703890       0.65416204       0.17216402       0.78124319      -0.18204800      -0.14381100      -1.66213000              inf
Si       0.04534280       2.54229000       2.71367000      -0.31239300       1.28413000      -0.34221500       0.64612824       0.00359599       0.91355751       0.83304537       0.90673057       0.78317419       0.53708578       0.78903997       0.31726078       0.75246563      -0.31239300       1.28413000      -0.34221500     408.33936276
Si       2.75605000      10.79160000       2.77087000       0.49802300       1.29216000      -0.38615600       0.85204572       0.85340302       0.51367818       0.87282239       0.82017011       0.79894650       0.37201285       0.66423859       0.96686152       0.14900056       0.49802300       1.29216000      -0.38615600     682.42720605
Si       1.37964000       1.19201000       1.34585000       0.32651700       0.56935500       0.57201200       0.18910324       0.95207726       0.03471561       0.46974636       0.83958842       0.98388376       0.12453032       0.50500719       0.71507885       0.28489893       0.32651700       0.56935500       0.57201200              inf
Si       4.21562000       4.01445000       1.29038000      -1.57418000       0.52151400       1.83923000       0.93693641       0.91465432       0.26961156       0.43272495       0.16421500       0.19321526       0.24506897       0.08956187       0.96704806       0.11131989      -1.57418000       0.52151400       1.83923000              inf
Si       1.31004000       4.07703000       4.16101000       1.12994000      -1.50576000      -0.43038900       0.21319411       0.02442041       0.33968919       0.75084700       0.61326560       0.61570611       0.92807428       0.42118299       0.82759519       0.41592549       1.12994000      -1.50576000      -0.43038900     572.92176625
Si       4.02837000       1.46524000       4.07590000       0.20386000      -0.99345400      -0.12441300       0.86852655       0.88479199       0.00105148       0.94140497       0.88036314       0.35445802       0.11195408       0.09438801       0.79780397       0.12121414       0.20386000      -0.99345400      -0.12441300              inf
Si       5.42942000       0.09102000      10.73210000      -0.09417730       0.75256500       1.56521000       0.65914499       0.22937185       0.57794389       0.94033528       0.14075269       0.17056077       0.96862062       0.39517011       0.59082612       0.52750500      -0.09417730       0.75256500       1.56521000              inf
Si       8.03093000       2.73118000      10.74770000      -0.71712800      -0.01946530       0.49944000       0.95664166       0.09951400       0.95796277       0.66075036       0.75255994       0.82956592       0.13601966       0.43196723       0.22222570       0.83604089      -0.71712800      -0.01946530       0.49944000     586.44870623
Si       5.47128000       2.80456000       2.83053000      -1.10349000      -1.51459000      -1.58371000       0.23723308       0.60764967       0.79366705       0.01251424       0.69463557       0.36698386       0.45258943       0.21714444       0.87204134       0.27479727      -1.10349000      -1.51459000      -1.58371000     378.26998959
Si       8.24912000       0.04335200       2.70033000      -2.83275000      -2.02183000      -0.30126300       0.16181968       0.68465742       0.36966125       0.29287462       0.76235289       0.87590147       0.53897698       0.63162149       0.12956234       0.60548087      -2.83275000      -2.02183000      -0.30126300     155.07261490
Si       6.75400000       1.36181000       1.51703000       0.22159500       0.54085200      -2.16486000       0.42126401       0.06288109       0.92028609       0.97392060       0.55132167       0.72050731       0.63007339       0.27548497       0.74825569       0.19940602       0.22159500       0.54085200      -2.16486000     254.47379651
Si       9.50149000       3.95075000       1.23577000       0.82803100       0.00350040       1.61600000       0.94736163       0.85815163       0.44694252       0.00966841       0.71983368       0.68336082       0.32793839       0.62191127       0.44006033       0.58429256       0.82803100       0.00350040       1.61600000     225.19514494
Si       6.75336000       4.03738000       4.08794000       1.60796000       0.95839400       2.66533000       0.07757189       0.56179604       0.61457826       0.95911329       0.42720970       0.11330293       0.44693372       0.97793953       0.85981989       0.63494033       1.60796000       0.95839400       2.66533000     550.72402004
Si       9.54472000       1.15957000       3.99949000       2.11114000       1.30128000       1.04700000       0.24331730       0.45564054       0.88784972       0.67831039       0.23749053       0.41016274       0.87533633       0.04302457       0.94431543       0.74480861       2.11114000       1.30128000       1.04700000     479.06980165
Si      10.80890000       5.58420000       0.15166200      -0.60332700      -0.45660600      -0.74223300       0.73081113       0.47345386       0.35204001       0.18901901       0.68771836       0.27580788       0.17409845       0.52432618       0.55730685       0.62888217      -0.60332700      -0.45660600      -0.74223300     395.97301519
Si       2.70755000       8.17841000       0.08917260       0.90001200       1.24654000       0.05410940       0.11345220       0.11455821       0.01583994       0.74521264       0.40699854       0.47144631       0.15976387       0.67498009       0.81352055       0.60492547       0.90001200       1.24654000       0.05410940     531.60083326
Si      -0.10318000       8.21411000       2.71054000       1.45285000      -0.56190800      -1.23777000       0.00861887       0.54448282       0.22950116       0.97529854       0.57452447       0.21983141       0.97275970       0.41315797       0.95310308       0.09942990       1.45285000      -0.56190800      -1.23777000              inf
Si       2.74945000       5.35206000       2.75142000       0.16382500      -0.71547600      -0.60798300       0.34726499       0.68566182       0.54191821       0.83481259       0.72375405       0.19961528       0.01750862       0.11412079       0.15700287       0.56622067       0.16382500      -0.71547600      -0.60798300     361.44385053
Si       1.47140000       6.77984000       1.42370000      -1.55724000       0.67534000       0.91939400       0.39914691       0.84977199       0.68216457       0.99379431       0.12310899       0.56142390       0.61279091       0.96637495       0.97170772       0.12918252      -1.55724000       0.67534000       0.91939400     602.73285768
Si       4.19122000       9.62619000       1.41131000      -0.60323100      -1.10562000      -1.53481000       0.04423268       0.54145238       0.96420399       0.79803618       0.38473075       0.17449086       0.38028928       0.21351840       0.48764985       0.13090041      -0.60323100      -1.10562000      -1.53481000     487.24863756
Si       1.50346000       9.36500000       4.00708000      -0.90692800      -0.68456900       0.28921600       0.97325191       0.69996455       0.33894190       0.27861482       0.15663388       0.57380651       0.71838556       0.31625362       0.14519481       0.13717249      -0.90692800      -0.68456900       0.28921600     641.99389299
Si       4.00257000       6.79022000       4.03090000       1.76172000      -0.31602300      -1.35439000       0.19594634       0.62867540       0.23422732       0.39789228       0.69528176       0.27876056       0.29789552       0.22318019       0.06244238       0.49277143       1.76172000      -0.31602300      -1.35439000     618.20747151
Si       5.42106000       5.45370000       0.03575400       0.24645200       1.40867000      -1.37893000       0.81125315       0.20032460       0.78613649       0.75600246       0.72124537       0.53050437       0.76529358       0.17081549       0.12060509       0.75365212       0.24645200       1.40867000      -1.37893000     718.62805149
Si       7.96258000       8.31024000      10.76690000       0.25222400      -1.85088000      -0.23721500       0.19696384       0.00332123       0.10813364       0.73420852       0.82306680       0.34905689       0.13926363       0.44868638       0.14384389       0.69635079       0.25222400      -1.85088000      -0.23721500     283.61976113
Si       5.47855000       8.10387000       2.60788000       0.14205200       0.23974100       1.92975000       0.72740930       0.23598310       0.83059616       0.86890359       0.69244426       0.06477762       0.80662327       0.30714122       0.64940943       0.97852550       0.14205200       0.23974100       1.92975000     290.20303447
Si       8.39446000       5.21711000       2.91198000      -2.03827000       1.14341000      -2.17926000       0.40485597       0.95587671       0.80187297       0.24039676       0.44936575       0.35358184       0.26609948       0.45593947       0.23889831       0.76359268      -2.03827000       1.14341000      -2.17926000     740.94356436
Si       6.88458000       6.69291000       1.40451000       0.86004500      -0.24488700      -0.05569180       0.22759473       0.21908152       0.58609424       0.28686684       0.67309968       0.79284474       0.00951295       0.47590638       0.94267161       0.26532249       0.86004500      -0.24488700      -0.05569180     636.79302764
Si       9.34496000       9.50044000       1.28085000       1.59877000       0.17006700       0.28374800       0.05647063       0.64066123       0.81451378       0.33915268       0.91925891       0.41188896       0.41802631       0.50730582       0.67619822       0.73852320       1.59877000       0.17006700       0.28374800     665.93635267
Si       6.86456000       9.45068000       4.11690000      -1.30424000       1.33504000      -1.81997000       0.95360177       0.78622308       0.32266739       0.63074729       0.00859539       0.02659957       0.46116281       0.20163370       0.86009878       0.57437885      -1.30424000       1.33504000      -1.81997000     555.93111623
Si       9.50010000       6.88569000       4.06405000       2.23076000      -2.44384000      -0.03554510       0.22383990       0.74321223       0.91848914       0.89439618       0.65873093       0.36128543       0.67708831       0.51784235       0.01457090       0.45558231       2.23076000      -2.44384000      -0.03554510     520.64990281
Si      10.96790000      10.66950000       5.27145000      -0.18565700       1.48784000       0.92486200       0.77800818       0.94572134       0.34087221       0.12003798       0.90241718       0.10869194       0.11315559       0.72183901       0.61610462       0.80771760      -0.18565700       1.48784000       0.92486200              inf
Si       2.76028000       2.63165000       5.58554000      -1.56925000       1.56720000      -1.14522000       0.13249878       0.22276774       0.89216526       0.08270830       0.46849213       0.22237695       0.47792906       0.84069458       0.41729107       0.94270675      -1.56925000       1.56720000      -1.14522000     646.14287873
Si       0.10105000       2.66913000       8.16615000      -0.05932230       0.65744900       1.07261000       0.79175341       0.64021433       0.21338500       0.09203156       0.87965807       0.79331471       0.74936278       0.73107648       0.70947800       0.97428300      -0.05932230       0.65744900       1.07261000     706.70057830
Si       2.69709000      -0.08724870       8.03639000      -0.58513600       0.53754600       2.06512000       0.96091080       0.25569373       0.00307577       0.91883176       0.01147419       0.93062055       0.75220825       0.07832619       0.01829159       0.28371416      -0.58513600       0.53754600       2.06512000              inf
Si       1.30345000       1.25732000       6.75781000       0.38525000      -0.42929600      -0.31537200       0.95147308       0.81320927       0.50041703       0.54794705       0.53646593       0.63985598       0.80620649       0.12210066       0.87243202       0.37317195       0.38525000      -0.42929600      -0.31537200     587.89464086
Si       3.95678000       4.21103000       6.81722000       1.47516000      -1.67373000       0.47203400       0.96775988       0.56706843       0.21626400       0.91707533       0.34498693       0.74973234       0.02905801       0.08528330       0.38658371       0.76119534       1.47516000      -1.67373000       0.47203400     643.41512884
Si       1.23754000       4.27464000       9.63266000       1.45131000      -1.94209000      -0.38831600       0.83248563       0.88046681       0.44175279       0.70373778       0.71765340       0.03212673       0.37015701       0.69375259       0.96321481       0.88794672       1.45131000      -1.94209000      -0.38831600     557.64105248
Si       4.01853000       1.45604000       9.45532000      -1.55868000      -1.36027000       0.55895700       0.53038816       0.02325890       0.43401286       0.31171668       0.06765221       0.36738465       0.68029500       0.91375038       0.11078714       0.03127475      -1.55868000      -1.36027000       0.55895700     405.02248897
Si       5.33716000      10.90040000       5.38473000       0.74381200      -1.08565000       0.20870600       0.18307086       0.22736071       0.78615961       0.98877573       0.21399120       0.09773758       0.38576525       0.11299493       0.11051876       0.35088527       0.74381200      -1.08565000       0.20870600              inf
Si       8.32965000       2.55000000       5.35997000      -1.55131000       1.74666000       0.51646800       0.16935339       0.23251936       0.90931197       0.54392411       0.89215391       0.96319377       0.50151178       0.08008577       0.26310159       0.53255738      -1.55131000       1.74666000       0.51646800              inf
Si       5.37757000       2.64707000       8.13775000      -0.09109210       2.26838000      -1.69453000       0.11136766       0.95780628       0.19667668       0.89909948       0.90471956       0.69938226       0.52424455       0.27514824       0.57828674       0.67790360      -0.09109210       2.26838000      -1.69453000     626.52278726
Si       8.19791000       0.12814400       7.98009000      -0.10482100       0.90961000       2.10979000       0.77643973       0.02268633       0.96648794       0.43704818       0.83353821       0.93028393       0.75758565       0.26158532       0.39829373       0.94908759      -0.10482100       0.90961000       2.10979000              inf
Si       6.76003000       1.39147000       6.72080000      -0.04528390       0.00842543      -0.61966300       0.35372944       0.32642377       0.90810678       0.82100963       0.33536478       0.73017561       0.73844198       0.20126496       0.21298613       0.56381051      -0.04528390       0.00842543      -0.61966300     511.63073831
Si       9.66889000       3.99317000       6.78298000      -1.76066000       0.38288600       0.10559800       0.69388266       0.98631233       0.56556834       0.18149709       0.17580630       0.46195672       0.48113320       0.69604003       0.83187352       0.13520247      -1.76066000       0.38288600       0.10559800              inf
Si       6.63240000       4.21336000       9.32463000       0.50518700      -1.81465000       2.00952000       0.75465437       0.56119664       0.23790634       0.35937129       0.36258830       0.47646381       0.63440482       0.38251435       0.46685603       0.33612132       0.50518700      -1.81465000       2.00952000     328.80464012
Si       9.60313000       1.38554000       9.60945000      -1.11074000      -0.40496900      -1.77505000       0.89855002       0.03705567       0.09031984       0.08884551       0.45481519       0.50021699       0.02265423       0.82755390       0.99243872       0.59496026      -1.11074000      -0.40496900      -1.77505000     625.38101780
Si      10.92140000       5.48930000       5.49379000      -1.22164000       0.22628400      -0.44785900       0.01008402       0.98476673       0.01689534       0.71904060       0.97513582       0.13356326       0.21034639       0.43497206       0.10552245       0.76681094      -1.22164000       0.22628400      -0.44785900     485.14608204
Si       2.74299000       7.95297000       5.40451000      -2.36204000       0.68335000       1.74220000       0.15304606       0.23340523       0.22035040       0.37951526       0.07179037       0.26102715       0.08708637       0.84615315       0.67055393       0.39908501      -2.36204000       0.68335000       1.74220000     691.24066989
Si      10.70230000       8.22152000       8.24558000       0.25315500       0.16501700      -0.77157900       0.81367617       0.40891671       0.35036323       0.77344254       0.07085568       0.91758947       0.51313714       0.84154738       0.09921657       0.99994411       0.25315500       0.16501700      -0.77157900              inf
Si       2.78497000       5.48364000       8.29552000      -1.51363000       0.79973700       0.36868900       0.33635079       0.09179344       0.25772846       0.16661130       0.36246397       0.99366444       0.06288630       0.51456713       0.76936301       0.66076145      -1.51363000       0.79973700       0.36868900     521.05426983
Si       1.21246000       6.74470000       7.03671000       1.85072000       0.97129700      -1.25129000       0.83925014       0.65091895       0.82325614       0.72000198       0.61622306       0.36116691       0.80706920       0.24407786       0.06426049       0.00799597       1.85072000       0.97129700      -1.25129000              inf
Si       3.96453000       9.40412000       6.71349000       1.45535000       0.58497500      -0.45792600       0.34538397       0.20687949       0.95506103       0.70233448       0.31508030       0.42590553       0.72231434       0.40270229       0.94275453       0.74693693       1.45535000       0.58497500      -0.45792600     513.24013636
Si       1.29859000       9.46417000       9.57799000       1.18049000      -0.07023490      -1.27704000       0.70025210       0.92000350       0.61440467       0.47215655       0.30255188       0.20845102       0.73993909       0.91055435       0.80197782       0.12487608       1.18049000      -0.07023490      -1.27704000     599.25627819
Si       4.09262000       7.01080000       9.50628000       0.32975500      -1.93457000       1.18714000       0.01114662       0.35162978       0.44821538       0.37171638       0.41944188       0.26881035       0.64288890       0.13948474       0.70224109       0.89167950       0.32975500      -1.93457000       1.18714000     681.57988152
Si       5.29694000       5.52807000       5.43167000       1.82299000      -0.85650600       0.02538340       0.67591753       0.26586862       0.38268355       0.48771769       0.05258468       0.43485622       0.43243972       0.32631342       0.15191135       0.99710646       1.82299000      -0.85650600       0.02538340     478.90085066
Si       8.23444000       8.11168000       5.29370000      -1.18871000       1.40098000       3.52815000       0.80713170       0.22295483       0.75958977       0.22864498       0.50115691       0.99328063       0.69859407       0.84820205       0.08919589       0.30056459      -1.18871000       1.40098000       3.52815000     475.86845054
Si       5.43082000       8.21554000       8.09943000       0.41290100       0.21864800      -0.87951600       0.10420612       0.00481079       0.83734640       0.18546334       0.12176822       0.35672697       0.03399454       0.41918201       0.84027647       0.57570353       0.41290100       0.21864800      -0.87951600     618.93779398
Si       8.16110000       5.39666000       8.18586000       0.76229100       0.07419270      -2.28425000       0.21052092       0.71706645       0.65245504       0.31587707       0.43350345       0.48653868       0.14448241       0.09133368       0.82843457       0.79406153       0.76229100       0.07419270      -2.28425000     357.69258741
Si       6.84358000       6.81310000       6.77085000      -0.22237300      -0.06145770      -0.30650600       0.99089609       0.95734677       0.61652294       0.55728787       0.40707930       0.65621149       0.65684341       0.93990886       0.91936609       0.36727943      -0.22237300      -0.06145770      -0.30650600     575.71002171
Si       9.48978000       9.66634000       6.72781000       0.51352400      -2.94740000      -0.72479300       0.20777675       0.04167075       0.72474117       0.10855573       0.25601520       0.28530428       0.17700660       0.46492322       0.55824437       0.11137149       0.51352400      -2.94740000      -0.72479300              inf
Si       6.73032000       9.71606000       9.30406000       0.61270100      -0.77125100       0.31413400       0.75926511       0.02608778       0.64516163       0.69461758       0.80968404       0.54576380       0.75731497       0.95295062       0.95900320       0.76939736       0.61270100      -0.77125100       0.31413400              inf
Si       9.41463000       6.78395000       9.51442000      -0.44405000       1.13193000       1.36140000       0.16922659       0.60770689       0.56547919       0.55541410       0.74847699       0.02768653       0.85160966       0.93843973       0.51847560       0.71281594      -0.44405000       1.13193000       1.36140000     416.58071309
