64
Lattice="10.862 0.0 0.0 0.0 10.862 0.0 0.0 0.0 10.862" Properties=species:S:1:pos:R:3:force:R:3:descriptors:R:10:ltau_forces_uq_score:R:1 PBC="1 1 1" Energy=-263.87003 ltau_forces_uq_bins="9.826158705261703e-06 1.1027062170109953e-05 1.2374733988202081e-05 1.388711144604322e-05 1.558432403465697e-05 1.7488961369744564e-05 1.9626373855691547e-05 2.2025010095210678e-05 2.4716795535485803e-05 2.7737557390534585e-05 3.1127501495435235e-05 3.4931747439266745e-05 3.92009290992939e-05 4.399186856940476e-05 4.9368332452677637e-05 5.5401880584202616e-05 6.217281848051923e-05 6.977126619261002e-05 7.82983577887071e-05 8.786758743182653e-05 9.860631996809534e-05 0.00011065748613155361 0.00012418148492831835 0.00013935831852052977 0.0001563899880250244 0.00017550318211441527 0.00019695229420541328 0.00022102280839265498 0.00024803509919425754 0.0002783486956830725 0.0003123670667585158 0.00035054299125013993 0.0003933845843281282 0.00044146206043123326 0.0004954153227255848 0.0005559624801088134 0.000623909405119375 0.000700160459965258 0.0007857305334337209 0.0008817585488913106 0.000989522623163398 0.0011104570780553508 0.001246171530935888 0.0013984723184750493 0.0015693865386831691 0.0017611890312463712 0.0019764326552623285 0.0022179822673679007 0.0024890528525018216 0.0027932523148165534 0.0031346294982791336 0.003517728076107228 0.003947647026299737 0.004430108498181178 0.0049715339732521865 0.005579129734034302 0.00626098277848512 0.007026168456588584 0.007884871261745434 0.008848520384677058 0.009929941834042498 0.0111435291484686 0.012505434972141823 0.014033786043800957 0.015748924460598036 0.017673678428009317 0.019833666099432202 0.022257636549522425 0.024977852419569537 0.028030519327856575 0.03145626776038425 0.03530069385584423 0.03961496628259934 0.044456507285101664 0.04988975696436252 0.055987030964919623 0.06282948298397104 0.07050818491351256 0.07912533899198845 0.08879563809899231 0.09964779229831235 0.11182624194735377 0.12549308017413968 0.1408302103097339 0.15804176699115657 0.1773568331592601 0.19903248911436056 0.22335723421203718 0.250654826741305 0.2812885930932962 0.31566626357475674 0.3542453992302428 0.3975394819030924 0.44612474859288853 0.5006478610735438 0.5618345128533615 0.6304990880342648 0.7075555006279824 0.794029358598705 0.8910716145335489 0.9999738846290095" ltau_forces_uq_index_type=IndexFlatL2 ltau_forces_uq_index_args=None ltau_forces_uq_num_nearest_neighbors=1 pbc="T T T"
Si      11.00860000      -0.18318200      10.95320000      -0.46121200       1.64634000      -0.65899600       0.03810700       0.33820827       0.37042120       0.02867225       0.82481870       0.90078037       0.33245324       0.61598267       0.67593268       0.54603512       0.50193643
Si       2.75251000       2.69713000      -0.04369190      -0.80566600       0.96474700       0.54829500       0.81873273       0.04368932       0.99526053       0.13188958       0.17994897       0.38210491       0.40732537       0.70580031       0.04200136       0.10622036       0.51118125
Si      -0.03540900       2.90940000       2.55964000       0.23251200      -1.52498000       0.91817800       0.40946669       0.64860051       0.31472704       0.36049277       0.13373292       0.17657343       0.38138540       0.97750963       0.01041824       0.81204940       0.49156139
Si       2.75523000      10.90980000       2.80034000      -1.92790000       0.54913100      -0.83952600       0.04831387       0.71066568       0.11805467       0.17428865       0.90914607       0.16656705       0.93822342       0.13748138       0.78592091       0.66778128       0.54136434
Si       1.35504000       1.40639000       1.34641000       0.51162000      -0.42547300       0.44264700       0.84925791       0.04676752       0.28262591       0.72234439       0.11834667       0.17899607       0.15706236       0.44017978       0.25284487       0.71474440       0.52214117
Si       4.11021000       3.99425000       1.45168000       0.35885700       0.93493600      -1.46988000       0.49472320       0.40542958       0.10044178       0.71558953       0.65524485       0.70207103       0.86904973       0.50559789       0.93867757       0.01274045       0.54190064
Si       1.32444000       4.16837000       3.97543000      -0.08346560      -0.52113100      -0.65179000       0.35666669       0.32230364       0.14102646       0.66719804       0.62153687       0.80508650       0.20038269       0.02633278       0.49611205       0.95151104       0.46400969
Si       3.88953000       1.35734000       4.19899000       2.13608000       0.45369600       0.85960800       0.63003064       0.24643433       0.49824587       0.29319449       0.27069612       0.01477042       0.51987349       0.56465432       0.29325085       0.71077144       0.45099422
Si       5.38381000       0.06838430      10.93820000       0.20608000      -0.50455700       1.14906000       0.10448272       0.29669938       0.72967234       0.19761036       0.84495536       0.25885905       0.67596092       0.41622657       0.94119987       0.68875634       0.49419998
Si       8.17948000       2.66672000      10.84190000      -0.53015300       1.01664000      -0.43025500       0.98746367       0.72703099       0.12553314       0.44456740       0.85619200       0.58861991       0.65578314       0.34849817       0.34589090       0.30473475       0.45571646
Si       5.37067000       2.68529000       2.89864000      -0.80945300       0.85797900       0.29313500       0.27521727       0.07138851       0.62726747       0.59151818       0.94407426       0.28146009       0.48235748       0.28906803       0.84744137       0.52948286       0.48219316
Si       7.99640000       0.06049160       2.78319000       0.39305900       1.44601000      -1.33774000       0.08506155       0.25276148       0.87397142       0.43027164       0.62130738       0.83058870       0.32210260       0.01049522       0.66203779       0.24701512       0.47514917
Si       6.65027000       1.64549000       1.37730000       1.02608000      -3.33839000       0.09344360       0.56760951       0.46779537       0.12050265       0.78039595       0.95022562       0.17762575       0.81141367       0.14654933       0.48426096       0.26566561       0.51206960
Si       9.39034000       4.13680000       1.27785000      -0.08874610       0.79772700      -0.16028700       0.57770482       0.08185549       0.72200953       0.80514028       0.12184769       0.12092436       0.09125077       0.09899178       0.45240874       0.60606540       0.49295888
Si       6.78850000       4.08667000       4.09481000       0.71165000      -0.99849900       0.35343800       0.15323100       0.71365743       0.29745030       0.05712158       0.29962937       0.73019929       0.74345184       0.53597064       0.16523749       0.42796144       0.49442089
Si       9.54605000       1.45297000       4.01673000      -0.49888600      -0.26358200      -0.09413190       0.53466364       0.46843236       0.23433105       0.85650821       0.65052637       0.95008225       0.62991500       0.63619505       0.15570240       0.24617172       0.48130890
Si      10.63340000       5.54645000      -0.12831600       1.54833000      -0.39287700      -0.21286200       0.47593479       0.58519544       0.48723615       0.96156137       0.59605643       0.51827723       0.99119138       0.67972828       0.23500036       0.77985953       0.47448108
Si       2.92452000       8.13570000       0.06217200      -1.72067000       0.57987500      -0.26968100       0.97498454       0.25766155       0.11462712       0.02960287       0.48021364       0.95399425       0.38124635       0.71441299       0.16616664       0.13752874       0.49646309
Si       0.01471430       8.12860000       2.74983000      -1.21906000       1.04250000       0.17471400       0.16308533       0.04199939       0.97605900       0.74495424       0.13320996       0.01822458       0.03627671       0.92249000       0.73896046       0.68007614       0.53356921
Si       2.71915000       5.44838000       2.63142000      -1.08254000       0.50442200      -0.90448200       0.79449616       0.81215482       0.41390705       0.97825893       0.81314242       0.86924813       0.46265013       0.65227377       0.77378211       0.14986667       0.52389915
Si       1.24512000       6.89692000       1.21161000       1.09620000      -1.27307000       0.53891000       0.52877603       0.73632659       0.89910930       0.28753063       0.74845406       0.93528242       0.48346455       0.18548825       0.30475502       0.63743350       0.50358999
Si       4.04158000       9.56108000       1.55545000       1.76795000      -0.91835100      -1.28365000       0.62717171       0.94425276       0.15284269       0.84595888       0.45099720       0.34637493       0.18300886       0.29621782       0.36958957       0.98299790       0.52232115
Si       1.45612000       9.52993000       4.08831000      -0.88257900      -0.80105200       0.06171860       0.28533944       0.06514486       0.60274758       0.35767844       0.82409115       0.70356957       0.65089856       0.28542944       0.17500863       0.28489706       0.47323332
Si       4.10490000       6.68607000       3.97026000      -0.77241500      -1.22642000       1.81441000       0.62834436       0.75914059       0.72758817       0.25280694       0.82623055       0.51969177       0.03119247       0.12656241       0.48692030       0.99075647       0.50358999
Si       5.55331000       5.49933000       0.04094180       0.10747000      -2.30747000       0.65181300       0.79321933       0.29384576       0.99531316       0.56708206       0.72513208       0.61772311       0.53962732       0.91436004       0.03173313       0.85604564       0.49564396
Si       8.23813000       8.12656000      10.70160000      -1.15117000       1.68997000       1.29222000       0.05962638       0.79162694       0.29713057       0.18801862       0.60148965       0.73538376       0.13008662       0.82036005       0.38052967       0.69327351       0.50896856
Si       5.37023000       7.98130000       2.79049000       1.33484000       2.26581000      -2.26131000       0.73387857       0.52271791       0.80858031       0.16682521       0.22485309       0.69515184       0.74977537       0.70828942       0.11903893       0.97760042       0.46572864
Si       8.07152000       5.48892000       2.68478000       0.79276800      -0.78752300       0.76124700       0.34339685       0.35790303       0.30217044       0.27246708       0.49917791       0.69992743       0.57568845       0.35197713       0.04194919       0.69258468       0.49442089
Si       6.90315000       6.88493000       1.34555000      -0.96920500       0.06541040      -0.42556100       0.98416606       0.94067706       0.03210408       0.37996498       0.22400491       0.53078172       0.16277187       0.25308381       0.31154172       0.22805532       0.51486722
Si       9.39963000       9.62921000       1.37771000       0.62154400      -2.12751000       0.39257000       0.53195219       0.27528925       0.54984783       0.83531291       0.21718664       0.02864691       0.71192373       0.68883787       0.15074638       0.10696036       0.49755780
Si       6.68265000       9.45394000       3.98776000       1.71784000      -0.85620300       2.26604000       0.44027366       0.62827489       0.75868742       0.93063323       0.70276262       0.88092410       0.60838564       0.76437864       0.15821820       0.15846385       0.49804450
Si       9.45471000       6.71489000       4.15474000       0.48618900       0.83927100      -1.58659000       0.94085397       0.63392738       0.61296842       0.13477386       0.59118249       0.26082375       0.89873076       0.17607931       0.66652454       0.04908806       0.51545514
Si      10.90510000      10.93390000       5.38432000      -0.52497800      -0.57282000       0.45580600       0.18831895       0.59588960       0.87174014       0.49572808       0.96526110       0.94355950       0.62509797       0.50425829       0.78633572       0.55518898       0.47267580
Si       2.52117000       2.83123000       5.42443000       1.10595000      -0.42760000       1.23458000       0.29635916       0.47366137       0.13022838       0.14985934       0.30928614       0.10705276       0.61050847       0.54470728       0.20683673       0.56218945       0.50821189
Si       0.05806350       2.57699000       8.32115000      -0.66965800       1.55540000      -1.58513000       0.58716941       0.07379669       0.95394680       0.25656577       0.88170502       0.61774870       0.43508442       0.05176975       0.35628486       0.34338615       0.51512581
Si       2.72671000       0.04406590       8.15366000      -0.50144400       0.33986300      -0.08915280       0.78398531       0.52016720       0.23953137       0.56646068       0.06696094       0.21938582       0.76976018       0.51514584       0.59612148       0.88423406       0.48821964
Si       1.29035000       1.39592000       6.87107000       1.00455000      -0.56697900      -0.99815100       0.04137265       0.46486993       0.32387195       0.80810247       0.24675421       0.27414745       0.14875655       0.43031348       0.68888909       0.29287152       0.53346504
Si       4.04968000       4.08105000       6.87056000      -0.85768600      -0.34176100      -0.65858600       0.62420303       0.35019324       0.99640125       0.82727269       0.96949134       0.09623379       0.92293976       0.46248106       0.69310216       0.34794881       0.51545514
Si       1.29288000       4.10888000       9.45046000       0.60649000       0.43027000       1.99894000       0.24994325       0.51397368       0.43812903       0.00615224       0.74651225       0.46410106       0.15405792       0.00984559       0.15136017       0.39680688       0.48347938
Si       4.04895000       1.29027000       9.55524000       0.29642600       0.91647200      -0.72538400       0.09797853       0.03395319       0.30146056       0.72057779       0.95232797       0.78990126       0.00744969       0.72410464       0.18081513       0.52515923       0.55420439
Si       5.50078000      10.82680000       5.44775000      -3.15501000      -0.70704300      -0.99773500       0.73381421       0.95373698       0.48927159       0.12421053       0.78194388       0.15405108       0.05135735       0.42142308       0.28925561       0.54341892       0.49159590
Si       8.14007000       2.63068000       5.53000000      -0.34605500       0.45254100      -0.94530200       0.20869877       0.67439953       0.31601535       0.60191660       0.22367596       0.18751752       0.75904562       0.19147423       0.14900890       0.70891159       0.54735114
Si       5.37005000       2.68379000       8.16182000      -0.30360400      -0.55773400       0.12306200       0.95485984       0.20367604       0.41533451       0.00862238       0.42044482       0.16629569       0.80750609       0.22060178       0.95885467       0.73955925       0.46829935
Si       8.06158000       0.06207040       8.29689000       0.99780600      -0.48745200      -1.43957000       0.06077414       0.02215671       0.44361355       0.70495378       0.74988700       0.49682557       0.97233327       0.86836090       0.82126118       0.70829665       0.55276573
Si       6.62542000       1.27917000       6.78232000       2.51522000       1.29779000       1.56363000       0.01931892       0.88696193       0.40224374       0.40977575       0.06120346       0.35813501       0.58409110       0.29451442       0.49420729       0.04527144       0.44880475
Si       9.63021000       3.91835000       6.80076000       0.72294400      -1.63854000      -0.58484100       0.52097321       0.31468766       0.70561414       0.99337705       0.00889110       0.51568440       0.07165283       0.55758228       0.79364613       0.31551360       0.48932789
Si       6.79147000       4.01576000       9.41845000       0.94982800       0.57881600       0.54002300       0.87782581       0.94980324       0.06660293       0.91838526       0.91358417       0.19555011       0.21249707       0.43093398       0.20495665       0.53204887       0.44113304
Si       9.64342000       1.30227000       9.63233000      -1.17190000      -1.52347000       0.54990300       0.62151825       0.20174117       0.37457981       0.56837226       0.05375818       0.30558120       0.73122225       0.14951520       0.47962208       0.83346109       0.44259870
Si      10.77550000       5.29372000       5.32823000       1.32657000       1.16375000       1.40295000       0.71352865       0.31209654       0.05509115       0.14936748       0.85573736       0.35086670       0.09349800       0.54334128       0.68834749       0.21937544       0.54305867
Si       2.83141000       8.04738000       5.33514000       0.13194600       1.62079000      -0.02423140       0.91192307       0.45590761       0.85089379       0.85005517       0.67266920       0.26932512       0.41895058       0.08428566       0.42746644       0.15349451       0.50645906
Si      11.06520000       8.19536000       7.96393000      -0.53627900      -0.75256500       0.57837800       0.64732159       0.98310301       0.85888439       0.36956954       0.23310884       0.65527572       0.33968002       0.75877027       0.12864744       0.27897343       0.47894697
Si       2.80881000       5.47677000       8.30809000      -1.28063000      -0.28481500      -2.28270000       0.95202734       0.89702637       0.70200624       0.94044345       0.14037050       0.02047344       0.89335742       0.71997822       0.01566071       0.01876577       0.48718492
Si       1.49989000       6.72289000       6.57147000      -1.14019000      -1.18453000       1.83743000       0.83088063       0.13202094       0.69419850       0.66542502       0.25027287       0.01294957       0.41986846       0.18476341       0.70361880       0.94386817       0.49144152
Si       3.98732000       9.56507000       6.82377000       1.68151000      -1.60045000      -0.69540900       0.51285435       0.09405810       0.85164300       0.79630399       0.58791054       0.56491992       0.99211128       0.55548129       0.34130112       0.33781083       0.48411137
Si       1.52314000       9.47582000       9.47149000      -0.18172200      -0.90994500       0.60942300       0.67319805       0.21668890       0.97729503       0.09290107       0.95783493       0.97440916       0.68131258       0.86005188       0.04442696       0.54906764       0.43934664
Si       4.18167000       6.71737000       9.60980000      -0.06345040       1.15769000      -0.10665900       0.85123084       0.73509954       0.26650730       0.05125996       0.25903418       0.61565158       0.94262183       0.08966508       0.33777782       0.84292244       0.46078942
Si       5.38427000       5.31073000       5.40193000       0.15448000       1.34027000       0.35100500       0.76756164       0.35866234       0.35072615       0.16180859       0.30405275       0.26606465       0.65468394       0.16953315       0.67754665       0.17815844       0.46829935
Si       8.28513000       8.12936000       5.54741000      -2.34990000       0.59580300      -2.28441000       0.13361795       0.61928914       0.77142405       0.26768396       0.00750255       0.38483632       0.30718492       0.91606848       0.63366751       0.89369666       0.44999182
Si       5.39908000       8.12538000       8.23622000       0.27897400      -0.05401700      -1.93928000       0.17852212       0.17888819       0.23487477       0.59210013       0.33498914       0.07702081       0.75781145       0.10663771       0.08757444       0.61085492       0.52956482
Si       8.30747000       5.21096000       7.94442000      -2.86631000       2.48792000       1.51086000       0.84786149       0.96744453       0.91027886       0.49168739       0.18025934       0.12142669       0.20866301       0.16840247       0.23098444       0.34917614       0.44931958
Si       6.81523000       6.75264000       6.67385000      -0.49333000      -0.65293700       1.81260000       0.18663895       0.50870814       0.10272751       0.04151601       0.13994196       0.92907503       0.18345256       0.88534380       0.00561499       0.19053962       0.55468560
Si       9.52411000       9.52390000       6.80601000       0.50099800       1.89393000       0.73883500       0.31237486       0.94869482       0.25853796       0.32313678       0.30026703       0.98583818       0.97976307       0.35205058       0.38287465       0.55662029       0.52857549
Si       6.68071000       9.53750000       9.55098000       0.80619000      -0.25610500       0.56755000       0.69296316       0.00667422       0.92341740       0.31054178       0.38770620       0.43231646       0.86041820       0.75365391       0.72962798       0.57075367       0.45582529
Si       9.44365000       6.87850000       9.22167000       1.31630000      -0.69991000      -0.54312300       0.74276929       0.33416959       0.70574518       0.41082172       0.94460408       0.13349129       0.21706138       0.79845032       0.71701822       0.76700647       0.47838002
