48
Lattice = "8.39999961853 0.0 0.0 0.0 8.39999961853 0.0 0.0 0.0 12.6000003815" Properties=species:S:1:pos:R:3:forces:R:3 energy=-556.196151 stress="44094.64 176.91000000000003 257.40000000000003 176.91000000000003 41950.53 439.89 257.40000000000003 439.89 40028.060000000005"
Ta 8.37577 0.07732 12.54307 0.193396 -0.499329 -0.077718
Ta 2.15528 2.07008 0.06672 -0.32228 0.17168 -0.769823
Ta 2.17608 0.01156 2.06262 -0.575545 -0.144242 0.553705
Ta 8.36759 2.03815 2.01865 0.158421 0.357495 0.477149
Ta 4.25295 8.39299 0.01959 -0.129413 -0.3983 -0.769823
Ta 6.3041 2.15126 12.55831 -0.100908 -0.537014 0.579287
Ta 6.31819 8.348 2.11631 -0.47465 0.826061 -0.151195
Ta 4.12134 2.08818 2.01802 1.198272 0.44388 0.857287
Ta 0.08271 4.2036 12.59844 -0.118028 0.163914 0.431759
Ta 2.01753 6.35781 0.0714 0.494708 -0.055352 -1.028673
Ta 2.08391 4.19281 2.14837 -0.158375 0.168457 0.181091
Ta 8.38687 6.38119 2.07973 0.392875 -0.502905 0.230173
Ta 1e-05 8.39354 4.1693 0.107276 0.205353 0.093359
Ta 2.08062 2.07046 4.21883 0.026291 0.31706 0.006631
Ta 2.05743 8.3971 6.26987 -0.209663 0.356146 0.194858
Ta 8.34982 2.15852 6.27812 0.272828 -0.518433 0.131469
Ta 0.043 0.03735 8.38109 -0.323399 0.174941 0.265006
Ta 2.1683 2.12031 8.32959 -0.372149 0.123767 0.247418
Ta 2.03915 0.06596 10.44595 0.608304 -0.370142 0.153462
Ta 0.0392 2.15708 10.57335 -0.077003 -0.470665 -0.584646
Ta 4.18371 4.19955 12.55926 -0.371136 0.959833 0.363516
Ta 6.365 6.38013 0.00232 -0.186193 -0.847087 -0.020211
Ta 6.34421 4.17285 2.04012 -0.364574 0.228708 0.09004
Ta 4.18677 6.32858 2.09014 0.198032 -0.567994 -0.060119
Ta 4.19831 0.06384 4.24991 0.200299 -0.125509 -0.197675
Ta 6.33101 2.08404 4.1756 -0.576465 0.148029 -0.203471
Ta 6.36187 8.33375 6.27465 0.032174 0.074865 0.331846
Ta 4.24224 2.04345 6.36746 0.424152 0.728418 -0.803879
Ta 4.20469 0.06736 8.35055 -0.071691 -0.324778 0.714795
Ta 6.36637 2.08974 8.39588 -0.27761 0.003974 0.2077
Ta 6.31852 8.34416 10.47042 0.145941 0.789314 -0.172407
Ta 4.26553 2.13504 10.56332 -0.447518 -0.543415 -0.681653
Ta 8.33751 4.1766 4.23019 0.47446 0.317403 -0.677715
Ta 2.12185 6.34879 4.19992 -0.160765 -0.306315 -0.189165
Ta 2.09925 4.22625 6.27971 0.035143 -0.18736 -0.177238
Ta 0.02185 6.34185 6.33585 -0.259106 -0.451908 -0.098487
Ta 0.00789 4.15479 8.43241 -0.172733 -0.036282 -0.42258
Ta 2.06258 6.26646 8.37821 0.360506 0.29163 0.464662
Ta 2.07183 4.15654 10.44613 0.797909 0.375531 0.441052
Ta 8.37673 6.24695 10.43381 0.470094 0.350637 0.295661
Ta 4.1818 4.18462 4.22566 0.403165 -0.221054 0.018898
Ta 6.30127 6.32098 4.14566 -0.247024 -0.429369 0.397465
Ta 6.37389 4.25506 6.30113 -0.825718 0.356737 0.021921
Ta 4.14506 6.37217 6.33119 0.524226 -0.464019 -0.33404
Ta 4.2507 4.22408 8.38434 -0.07311 -0.474256 -0.097241
Ta 6.22906 6.29278 8.44824 0.607511 0.08044 -0.657565
Ta 6.31263 4.16515 10.53822 -0.023348 0.504182 -0.060435
Ta 4.25683 6.33642 10.47293 -1.207578 -0.04273 0.485548
