64
Lattice="10.862 0.0 0.0 0.0 10.862 0.0 0.0 0.0 10.862" Properties=species:S:1:pos:R:3:masses:R:1:atomic-forces:R:3 potential-energy=-9868.860043036788 cauchy-stress="_JSON [[0.6590306420033071, -0.3754120978554553, 0.24154649869853353], [-0.3754120978554553, 0.37879551409788303, -0.6700635210547018], [0.24154649869853353, -0.6700635210547018, 0.5217816266039577]]" _metadata="_JSON {\"data_source\": \"AiiDA pk<1711>\", \"storage_id\": \"0a7bec0269f14b168556b3f3bf3eacf8\"}" pbc="T T T"
Si      10.85880000       0.03415980      10.81620000      28.08500000       0.61267768       0.29288361       0.19900030
Si       2.73055000       2.77429000       0.06036780      28.08500000       0.04639067      -0.39705545      -0.08112730
Si      -0.09275380       2.78812000       2.68701000      28.08500000      -0.56580132      -0.41785954       0.08102420
Si       2.55128000      10.97030000       2.79642000      28.08500000       0.32969821      -1.21190437      -0.19777568
Si       1.25941000       1.41665000       1.41600000      28.08500000       0.30403860       0.27886313      -1.01903770
Si       4.07132000       4.19696000       1.42414000      28.08500000       0.60366647      -0.86487872      -1.40614735
Si       1.32000000       4.03040000       3.94536000      28.08500000       0.44125812       0.92105296       1.18955197
Si       4.10937000       1.31933000       3.99275000      28.08500000      -0.77845623       0.17255522       1.16084123
Si       5.44565000      -0.08948650      10.97810000      28.08500000      -1.23123829      -0.94934229      -1.27534634
Si       8.12662000       2.64359000      11.01610000      28.08500000       1.21959222       0.49700426      -0.50966771
Si       5.35318000       2.64950000       2.61184000      28.08500000       1.09579207       0.72374599       0.78778060
Si       8.15455000      -0.15044200       2.58780000      28.08500000       0.50494486       1.58076151       0.78392934
Si       6.75569000       1.23545000       1.32130000      28.08500000       0.30365319       0.83440755       1.11399830
Si       9.57596000       4.27904000       1.33331000      28.08500000      -1.45337286      -0.86136094       0.35465719
Si       6.70667000       4.08295000       4.18891000      28.08500000       0.07188959      -0.31417929      -2.11144156
Si       9.45267000       1.34718000       4.07680000      28.08500000      -0.71619106       0.38612492      -0.46034933
Si      10.94240000       5.43892000      -0.11138100      28.08500000       0.08145486       0.39789621      -0.39249740
Si       2.80475000       8.07568000      -0.07373260      28.08500000      -0.87604322       0.84049232       0.21399780
Si       0.02877370       8.10925000       2.70889000      28.08500000      -0.76360426       1.10846606       1.66500062
Si       2.67570000       5.45185000       2.61559000      28.08500000      -1.05983519       1.19830426       0.77619726
Si       1.24544000       6.95785000       1.28337000      28.08500000       1.76744082      -1.90128319      -0.76586940
Si       3.93019000       9.43160000       1.50463000      28.08500000       0.61271239       0.71658675      -0.35852465
Si       1.23730000       9.57965000       4.20128000      28.08500000       0.26125802      -0.10184731      -0.65861583
Si       4.05006000       6.78348000       4.03126000      28.08500000      -0.04266720       0.46285435      -0.30816856
Si       5.39114000       5.43801000      -0.13474700      28.08500000       1.79164184      -1.20125357       2.34487484
Si       8.37170000       8.11398000      10.88250000      28.08500000      -0.97706881       0.76073722       0.60828495
Si       5.50536000       8.24432000       2.81818000      28.08500000      -0.02211483      -0.58752355      -0.50315845
Si       7.97972000       5.57318000       2.68999000      28.08500000       1.61346825      -1.93186749       1.25447747
Si       6.86116000       6.83363000       1.27305000      28.08500000      -1.73915920       1.04931655      -0.58535431
Si       9.66115000       9.53298000       1.33235000      28.08500000      -0.33621338      -0.74731992       0.23314635
Si       6.90742000       9.65382000       4.15556000      28.08500000      -0.97706341      -1.01070218      -0.12707574
Si       9.54014000       6.71391000       4.11134000      28.08500000      -1.80697076       1.64207615      -1.38291255
Si      10.75290000      10.96120000       5.55861000      28.08500000      -0.26935596      -0.73468346      -1.44776374
Si       2.66854000       2.70600000       5.40566000      28.08500000       0.71330680       0.00042603      -0.34982918
Si      -0.13278400       2.72329000       8.16064000      28.08500000       0.51553137      -1.10772944       0.04463075
Si       2.68466000       0.02410620       8.23376000      28.08500000       0.73691132       0.80218186      -1.35240384
Si       1.29268000       1.34987000       6.72820000      28.08500000       0.85039133       0.84431504       1.65574850
Si       4.18821000       3.94447000       6.83747000      28.08500000      -0.45973484       0.77586533      -1.15228023
Si       1.40202000       3.97112000       9.38901000      28.08500000       0.01217135       0.85334707       0.31954389
Si       4.10172000       1.36091000       9.54680000      28.08500000       0.23996825      -0.04744662       0.49348262
Si       5.39108000      10.82790000       5.48053000      28.08500000       0.76971011       1.09790911      -0.02760259
Si       8.02123000       2.72971000       5.49467000      28.08500000       0.94499250      -0.54972319      -0.32526280
Si       5.54777000       2.67069000       8.17849000      28.08500000      -0.50384237       0.25146468       1.24551691
Si       8.14100000      -0.15984100       8.16480000      28.08500000       0.16466630      -0.09984133      -0.66143530
Si       6.83107000       1.33164000       6.91802000      28.08500000      -0.22459794      -0.98326979      -1.08047189
Si       9.42089000       4.04352000       6.82962000      28.08500000       0.22455629       1.01847205      -0.55981091
Si       6.88373000       4.00711000       9.62140000      28.08500000      -0.25307574       0.66434888      -1.07235286
Si       9.38492000       1.22247000       9.50373000      28.08500000       0.27001802       1.31599445       0.22095469
Si      10.80330000       5.47357000       5.39353000      28.08500000       1.18786455      -2.00946596       0.74316013
Si       2.76414000       8.24627000       5.38873000      28.08500000       1.11693656       0.80885593      -0.30330764
Si      10.99440000       8.16439000       7.99780000      28.08500000       0.15732709      -0.13924246       0.40114299
Si       2.76464000       5.39723000       7.99077000      28.08500000      -0.84302923      -0.50862410      -0.14319527
Si       1.47178000       6.84565000       6.52243000      28.08500000      -0.72872467      -1.03611573       1.71531993
Si       4.19197000       9.51480000       6.92683000      28.08500000      -0.98684800      -0.84217177       0.30874526
Si       1.35830000       9.57417000       9.46366000      28.08500000       0.12924627      -1.36282144       0.58951127
Si       4.03135000       6.57240000       9.49779000      28.08500000      -1.00496682       1.61183072      -1.05468758
Si       5.41034000       5.49188000       5.37777000      28.08500000      -0.62969555      -0.31226639       1.24552154
Si       8.12524000       8.18874000       5.45071000      28.08500000       0.30775899      -0.94712780      -0.66887222
Si       5.46857000       7.96966000       8.31767000      28.08500000      -0.10917752       1.15475415      -0.50351198
Si       8.14623000       5.53267000       8.12521000      28.08500000       0.25555557      -0.53560089       0.93917332
Si       6.76499000       6.82719000       6.78501000      28.08500000      -0.11110611      -0.28397268      -0.25011820
Si       9.54309000       9.41506000       6.69894000      28.08500000      -0.31146755       0.64721119       1.28768840
Si       6.90358000       9.38815000       9.58779000      28.08500000      -1.01850702      -0.01108865       0.44398940
Si       9.61407000       6.94290000       9.47399000      28.08500000       0.54143909      -1.70153471      -1.32491541
