128
Lattice="0.0 6.4 6.4 6.4 0.0 6.4 6.4 6.4 0.0" Properties=species:S:1:pos:R:3:atomic_forces_forces:R:3:quests_descriptor_descriptors:R:189 energy_energy=0.30529845276213197 energy_per_atom=F quests_descriptor_num_nearest_neighbors=32 quests_descriptor_cutoff=5.0 quests_descriptor_species="_JSON [\"Na\", \"Cl\"]" pbc="T T T"
Na       0.00027146      -0.00062699       0.00043004       0.20925376       0.88103681       0.95438876       0.50447935       0.50425309       0.50407755       0.50400603       0.50389856       0.50291574       0.28006020       0.27983204       0.27975306       0.27973819       0.27972454       0.27969170       0.27967644       0.27937561       0.27935296       0.27924564       0.27906960       0.27884811       0.17360188       0.17353112       0.17324968       0.17323151       0.17310593       0.17295122       0.17294969       0.17284752       0.10909250       0.10898838       0.10888903       0.10884026       0.10878325       0.10874593       0.00000000       0.00000000       0.00000000       0.00000000       0.00000000       0.00000000       0.00000000       0.00000000       0.00000000       0.00000000       0.00000000       0.00000000       0.00000000       0.00000000       0.00000000       0.00000000       0.00000000       0.00000000       0.00000000       0.00000000       0.00000000       0.00000000       0.00000000       0.00000000       0.00000000       0.00000000       0.00000000       0.00000000       0.00000000       0.00000000       0.00000000       0.00000000       0.28006020       0.27983204       0.27975306       0.27973819       0.27972454       0.27969170       0.27967644       0.27937561       0.27935296       0.27924564       0.27906960       0.27884811       0.10909250       0.10898838       0.10888903       0.10884026       0.10878325       0.10874593       0.03810570       0.03807637       0.03802778       0.03799766       0.03798986       0.03797895       0.03797764       0.03797300       0.03797064       0.03797007       0.03796937       0.03796686       0.03795322       0.03795308       0.39945722       0.37593755       0.33778769       0.32020485       0.27937797       0.26812735       0.23907560       0.23893344       0.22613786       0.21441817       0.19557688       0.19542754       0.19247776       0.18414998       0.18340939       0.18238166       0.16876039       0.16593899       0.15228271       0.15219793       0.14947359       0.14127007       0.13068745       0.13060486       0.12313732       0.11561645       0.11363511       0.10692512       0.10449639       0.09625275       0.08494879       0.00000000       0.00000000       0.00000000       0.00000000       0.00000000       0.00000000       0.00000000       0.00000000       0.00000000       0.00000000       0.00000000       0.00000000       0.00000000       0.00000000       0.00000000       0.00000000       0.00000000       0.00000000       0.00000000       0.00000000       0.00000000       0.00000000       0.00000000       0.00000000       0.00000000       0.00000000       0.00000000       0.00000000       0.00000000       0.00000000       0.00000000       0.20317738       0.20306447       0.18774164       0.18558307       0.13457397       0.13447300       0.12627694       0.12619692       0.10767660       0.10666446       0.10526685       0.10378989       0.09456873       0.09225871       0.08847355       0.08444431       0.07684771       0.07239747       0.06718925       0.06013167       0.05844869       0.05486180       0.05197274       0.04886397       0.04550469       0.04300939       0.04136445       0.03902058       0.03686520       0.03528943       0.03424001
Cl       1.59825262      -0.00208444      -0.00104065       0.39801315       0.21108207       0.69862887       0.50498128       0.50447935       0.50398147       0.50376666       0.50257975       0.50231338       0.28024450       0.27992249       0.27989623       0.27981129       0.27976987       0.27972540       0.27932468       0.27926040       0.27904153       0.27883744       0.27861965       0.27855963       0.17387429       0.17340498       0.17339130       0.17315535       0.17304415       0.17302316       0.17302221       0.17239055       0.10937227       0.10933550       0.10915072       0.10883328       0.10872446       0.10856680       0.28024450       0.27992249       0.27989623       0.27981129       0.27976987       0.27972540       0.27932468       0.27926040       0.27904153       0.27883744       0.27861965       0.27855963       0.10937227       0.10933550       0.10915072       0.10883328       0.10872446       0.10856680       0.03821628       0.03815413       0.03808446       0.03807659       0.03807262       0.03805557       0.03804158       0.03804145       0.03801123       0.03801093       0.03799659       0.03797772       0.03796993       0.03796431       0.00000000       0.00000000       0.00000000       0.00000000       0.00000000       0.00000000       0.00000000       0.00000000       0.00000000       0.00000000       0.00000000       0.00000000       0.00000000       0.00000000       0.00000000       0.00000000       0.00000000       0.00000000       0.00000000       0.00000000       0.00000000       0.00000000       0.00000000       0.00000000       0.00000000       0.00000000       0.00000000       0.00000000       0.00000000       0.00000000       0.00000000       0.00000000       0.39939433       0.37586600       0.33775982       0.32014632       0.27931014       0.26808736       0.23899007       0.23882657       0.22617944       0.21435727       0.19566631       0.19544214       0.19242869       0.18408336       0.18339327       0.18229650       0.16872521       0.16589224       0.15228423       0.15217833       0.14947207       0.14122513       0.13066134       0.13057216       0.12312812       0.11566724       0.11365860       0.10695130       0.10451013       0.09627349       0.08496387       0.20326237       0.20311457       0.18776603       0.18550541       0.13468456       0.13449489       0.12630373       0.12615344       0.10812140       0.10691517       0.10510093       0.10426063       0.09517762       0.09125053       0.08891106       0.08355102       0.07959916       0.07194690       0.06737856       0.06107316       0.05807044       0.05586323       0.05157181       0.04875940       0.04655780       0.04450178       0.04182262       0.03966549       0.03759371       0.03583688       0.03475735       0.00000000       0.00000000       0.00000000       0.00000000       0.00000000       0.00000000       0.00000000       0.00000000       0.00000000       0.00000000       0.00000000       0.00000000       0.00000000       0.00000000       0.00000000       0.00000000       0.00000000       0.00000000       0.00000000       0.00000000       0.00000000       0.00000000       0.00000000       0.00000000       0.00000000       0.00000000       0.00000000       0.00000000       0.00000000       0.00000000       0.00000000
Na       1.59828731       1.60004269      -0.00039139       0.40549910       0.59761326       0.28465166       0.50391364       0.50376505       0.50340921       0.50323611       0.50322360       0.50257975       0.28017312       0.27970821       0.27969170       0.27967718       0.27952009       0.27947083       0.27943823       0.27938423       0.27929956       0.27896854       0.27894044       0.27869165       0.17372972       0.17343719       0.17325214       0.17324811       0.17316127       0.17300977       0.17294493       0.17286077       0.10910893       0.10910738       0.10905531       0.10904539       0.10888316       0.10876336       0.00000000       0.00000000       0.00000000       0.00000000       0.00000000       0.00000000       0.00000000       0.00000000       0.00000000       0.00000000       0.00000000       0.00000000       0.00000000       0.00000000       0.00000000       0.00000000       0.00000000       0.00000000       0.00000000       0.00000000       0.00000000       0.00000000       0.00000000       0.00000000       0.00000000       0.00000000       0.00000000       0.00000000       0.00000000       0.00000000       0.00000000       0.00000000       0.28017312       0.27970821       0.27969170       0.27967718       0.27952009       0.27947083       0.27943823       0.27938423       0.27929956       0.27896854       0.27894044       0.27869165       0.10910893       0.10910738       0.10905531       0.10904539       0.10888316       0.10876336       0.03819225       0.03808856       0.03807549       0.03804310       0.03804248       0.03804209       0.03803496       0.03802577       0.03800188       0.03799256       0.03798535       0.03798333       0.03797319       0.03797131       0.39946145       0.37584385       0.33774084       0.32015678       0.27928954       0.26801631       0.23894747       0.23875509       0.22617073       0.21433420       0.19563344       0.19549678       0.19240390       0.18406062       0.18335737       0.18231890       0.16870351       0.16587423       0.15225659       0.15217814       0.14947358       0.14122461       0.13066590       0.13058475       0.12311646       0.11564332       0.11367614       0.10694513       0.10451972       0.09629449       0.08498320       0.00000000       0.00000000       0.00000000       0.00000000       0.00000000       0.00000000       0.00000000       0.00000000       0.00000000       0.00000000       0.00000000       0.00000000       0.00000000       0.00000000       0.00000000       0.00000000       0.00000000       0.00000000       0.00000000       0.00000000       0.00000000       0.00000000       0.00000000       0.00000000       0.00000000       0.00000000       0.00000000       0.00000000       0.00000000       0.00000000       0.00000000       0.20319094       0.20308903       0.18775348       0.18555853       0.13462873       0.13452159       0.12626830       0.12618227       0.10769754       0.10762225       0.10502519       0.10449290       0.09459208       0.09184702       0.08878468       0.08339213       0.07908174       0.07332698       0.06783208       0.06031981       0.05809781       0.05569725       0.05397829       0.04841606       0.04716884       0.04363095       0.04202268       0.04016366       0.03804106       0.03630401       0.03490610
Cl       3.19860043       1.60107166       0.00191038       0.68688542       0.49685652       0.54056411       0.50408685       0.50377941       0.50340921       0.50329840       0.50310701       0.50303876       0.28035784       0.28008610       0.27972126       0.27966684       0.27951756       0.27933985       0.27924216       0.27904794       0.27900317       0.27897301       0.27883744       0.27877221       0.17363843       0.17347501       0.17327784       0.17317706       0.17311329       0.17304173       0.17286609       0.17272788       0.10917666       0.10904855       0.10901345       0.10894823       0.10864039       0.10847843       0.28035784       0.28008610       0.27972126       0.27966684       0.27951756       0.27933985       0.27924216       0.27904794       0.27900317       0.27897301       0.27883744       0.27877221       0.10917666       0.10904855       0.10901345       0.10894823       0.10864039       0.10847843       0.03826266       0.03813357       0.03810926       0.03809438       0.03809166       0.03808933       0.03806381       0.03804535       0.03803029       0.03799369       0.03792239       0.03791302       0.03791003       0.03790706       0.00000000       0.00000000       0.00000000       0.00000000       0.00000000       0.00000000       0.00000000       0.00000000       0.00000000       0.00000000       0.00000000       0.00000000       0.00000000       0.00000000       0.00000000       0.00000000       0.00000000       0.00000000       0.00000000       0.00000000       0.00000000       0.00000000       0.00000000       0.00000000       0.00000000       0.00000000       0.00000000       0.00000000       0.00000000       0.00000000       0.00000000       0.00000000       0.39926201       0.37584215       0.33770463       0.32007670       0.27926528       0.26801404       0.23889431       0.23876314       0.22609203       0.21430045       0.19555637       0.19537464       0.19240899       0.18405522       0.18333565       0.18228121       0.16867545       0.16587764       0.15224122       0.15211754       0.14939958       0.14120212       0.13062438       0.13056713       0.12309223       0.11562447       0.11361282       0.10690825       0.10449043       0.09621613       0.08490595       0.20322283       0.20306742       0.18767729       0.18548068       0.13458437       0.13445099       0.12625955       0.12614809       0.10778580       0.10714218       0.10493414       0.10397662       0.09497325       0.09244230       0.08838697       0.08355974       0.07845316       0.07230959       0.06632646       0.06075558       0.05827781       0.05453883       0.05196891       0.04871923       0.04602848       0.04361185       0.04156385       0.03919844       0.03701633       0.03586050       0.03411897       0.00000000       0.00000000       0.00000000       0.00000000       0.00000000       0.00000000       0.00000000       0.00000000       0.00000000       0.00000000       0.00000000       0.00000000       0.00000000       0.00000000       0.00000000       0.00000000       0.00000000       0.00000000       0.00000000       0.00000000       0.00000000       0.00000000       0.00000000       0.00000000       0.00000000       0.00000000       0.00000000       0.00000000       0.00000000       0.00000000       0.00000000
Na       3.20067659       3.20057774       0.00139280       0.32154830       0.59358245       0.41640458       0.50421089       0.50412607       0.50377941       0.50324428       0.50288296       0.50260043       0.27987266       0.27963969       0.27960488       0.27958989       0.27956611       0.27946466       0.27944952       0.27941686       0.27913603       0.27900839       0.27895349       0.27894044       0.17377566       0.17369792       0.17344336       0.17340535       0.17331243       0.17306347       0.17295629       0.17229509       0.10931229       0.10897183       0.10888922       0.10884814       0.10884057       0.10877867       0.00000000       0.00000000       0.00000000       0.00000000       0.00000000       0.00000000       0.00000000       0.00000000       0.00000000       0.00000000       0.00000000       0.00000000       0.00000000       0.00000000       0.00000000       0.00000000       0.00000000       0.00000000       0.00000000       0.00000000       0.00000000       0.00000000       0.00000000       0.00000000       0.00000000       0.00000000       0.00000000       0.00000000       0.00000000       0.00000000       0.00000000       0.00000000       0.27987266       0.27963969       0.27960488       0.27958989       0.27956611       0.27946466       0.27944952       0.27941686       0.27913603       0.27900839       0.27895349       0.27894044       0.10931229       0.10897183       0.10888922       0.10884814       0.10884057       0.10877867       0.03811736       0.03808336       0.03805258       0.03803568       0.03800563       0.03799586       0.03799232       0.03798202       0.03797581       0.03794212       0.03794032       0.03793830       0.03793555       0.03791247       0.39935985       0.37586769       0.33777881       0.32017860       0.27922571       0.26802167       0.23895214       0.23883921       0.22611924       0.21441552       0.19565564       0.19543198       0.19236808       0.18404825       0.18334457       0.18234518       0.16871694       0.16586114       0.15223916       0.15216589       0.14948970       0.14124630       0.13069256       0.13057062       0.12313692       0.11563121       0.11364334       0.10694139       0.10449710       0.09625284       0.08495509       0.00000000       0.00000000       0.00000000       0.00000000       0.00000000       0.00000000       0.00000000       0.00000000       0.00000000       0.00000000       0.00000000       0.00000000       0.00000000       0.00000000       0.00000000       0.00000000       0.00000000       0.00000000       0.00000000       0.00000000       0.00000000       0.00000000       0.00000000       0.00000000       0.00000000       0.00000000       0.00000000       0.00000000       0.00000000       0.00000000       0.00000000       0.20312908       0.20302343       0.18770535       0.18552320       0.13459300       0.13445751       0.12622708       0.12616557       0.10788722       0.10614412       0.10498933       0.10424476       0.09504571       0.09079164       0.08798216       0.08517080       0.07771774       0.07250978       0.06664810       0.06163729       0.05780181       0.05525079       0.05111083       0.04892376       0.04604159       0.04425418       0.04180449       0.03931757       0.03702521       0.03592345       0.03426735
Cl       4.80135165       3.20063748       0.00157586       0.14061515       0.02851593       0.18511124       0.50486481       0.50368285       0.50332713       0.50324428       0.50299746       0.50215614       0.28005743       0.27980331       0.27973989       0.27970561       0.27960280       0.27950892       0.27933422       0.27926478       0.27917355       0.27914539       0.27913502       0.27904794       0.17353828       0.17351134       0.17340870       0.17332242       0.17323470       0.17318214       0.17298028       0.17275289       0.10932667       0.10905600       0.10905167       0.10898713       0.10874756       0.10857485       0.28005743       0.27980331       0.27973989       0.27970561       0.27960280       0.27950892       0.27933422       0.27926478       0.27917355       0.27914539       0.27913502       0.27904794       0.10932667       0.10905600       0.10905167       0.10898713       0.10874756       0.10857485       0.03823252       0.03816732       0.03808940       0.03804627       0.03804594       0.03803641       0.03802925       0.03802626       0.03802237       0.03798418       0.03797672       0.03795566       0.03795360       0.03795175       0.00000000       0.00000000       0.00000000       0.00000000       0.00000000       0.00000000       0.00000000       0.00000000       0.00000000       0.00000000       0.00000000       0.00000000       0.00000000       0.00000000       0.00000000       0.00000000       0.00000000       0.00000000       0.00000000       0.00000000       0.00000000       0.00000000       0.00000000       0.00000000       0.00000000       0.00000000       0.00000000       0.00000000       0.00000000       0.00000000       0.00000000       0.00000000       0.39942127       0.37587169       0.33780986       0.32023805       0.27927786       0.26805422       0.23896039       0.23882325       0.22614683       0.21434736       0.19561841       0.19548184       0.19247457       0.18405659       0.18336482       0.18235470       0.16875157       0.16588312       0.15228081       0.15219268       0.14945330       0.14124797       0.13068123       0.13061510       0.12314179       0.11566892       0.11366151       0.10694659       0.10453533       0.09625594       0.08495316       0.20320974       0.20311441       0.18777993       0.18556003       0.13461210       0.13451768       0.12627611       0.12620480       0.10786613       0.10714638       0.10510664       0.10427187       0.09468369       0.09175167       0.08889668       0.08305314       0.07975647       0.07239726       0.06775583       0.06151149       0.05780673       0.05596571       0.05243506       0.04875581       0.04662263       0.04384527       0.04163324       0.03970743       0.03730667       0.03567912       0.03491217       0.00000000       0.00000000       0.00000000       0.00000000       0.00000000       0.00000000       0.00000000       0.00000000       0.00000000       0.00000000       0.00000000       0.00000000       0.00000000       0.00000000       0.00000000       0.00000000       0.00000000       0.00000000       0.00000000       0.00000000       0.00000000       0.00000000       0.00000000       0.00000000       0.00000000       0.00000000       0.00000000       0.00000000       0.00000000       0.00000000       0.00000000
Na       4.80086590       4.80035404      -0.00050504       0.62686912       0.71109265       0.33335680       0.50394887       0.50387770       0.50384325       0.50368285       0.50297570       0.50277060       0.27982327       0.27973819       0.27971336       0.27959031       0.27956545       0.27946466       0.27934313       0.27921370       0.27919209       0.27917227       0.27916300       0.27905661       0.17391314       0.17341505       0.17335157       0.17323099       0.17321675       0.17308897       0.17298339       0.17282121       0.10898511       0.10897958       0.10897692       0.10890835       0.10880923       0.10879679       0.00000000       0.00000000       0.00000000       0.00000000       0.00000000       0.00000000       0.00000000       0.00000000       0.00000000       0.00000000       0.00000000       0.00000000       0.00000000       0.00000000       0.00000000       0.00000000       0.00000000       0.00000000       0.00000000       0.00000000       0.00000000       0.00000000       0.00000000       0.00000000       0.00000000       0.00000000       0.00000000       0.00000000       0.00000000       0.00000000       0.00000000       0.00000000       0.27982327       0.27973819       0.27971336       0.27959031       0.27956545       0.27946466       0.27934313       0.27921370       0.27919209       0.27917227       0.27916300       0.27905661       0.10898511       0.10897958       0.10897692       0.10890835       0.10880923       0.10879679       0.03812623       0.03803985       0.03803227       0.03801628       0.03799647       0.03798561       0.03797141       0.03796201       0.03795962       0.03795460       0.03795116       0.03794435       0.03794357       0.03794204       0.39936393       0.37585577       0.33778679       0.32021564       0.27927265       0.26806968       0.23896736       0.23882701       0.22612831       0.21436030       0.19556947       0.19545469       0.19246426       0.18407299       0.18335277       0.18234301       0.16873044       0.16588676       0.15223169       0.15217508       0.14948945       0.14123125       0.13068549       0.13059390       0.12313524       0.11563049       0.11362920       0.10693841       0.10449921       0.09625500       0.08495907       0.00000000       0.00000000       0.00000000       0.00000000       0.00000000       0.00000000       0.00000000       0.00000000       0.00000000       0.00000000       0.00000000       0.00000000       0.00000000       0.00000000       0.00000000       0.00000000       0.00000000       0.00000000       0.00000000       0.00000000       0.00000000       0.00000000       0.00000000       0.00000000       0.00000000       0.00000000       0.00000000       0.00000000       0.00000000       0.00000000       0.00000000       0.20313534       0.20304382       0.18769476       0.18551484       0.13455452       0.13447425       0.12623858       0.12617315       0.10764717       0.10637535       0.10499489       0.10425370       0.09455148       0.09079390       0.08895902       0.08392590       0.07930410       0.07280147       0.06571303       0.06261237       0.05781052       0.05573160       0.05139337       0.04773542       0.04670140       0.04390320       0.04103377       0.03898887       0.03691132       0.03553777       0.03463652
Cl       6.40023394       4.80036061      -0.00139249       0.35330420       0.34525801       0.67757966       0.50450611       0.50400603       0.50384325       0.50346416       0.50295860       0.50263405       0.28035766       0.28024450       0.27979472       0.27978808       0.27971503       0.27970561       0.27960780       0.27953708       0.27941221       0.27927238       0.27898523       0.27889362       0.17338012       0.17336740       0.17336017       0.17333576       0.17332734       0.17313947       0.17308384       0.17302199       0.10908979       0.10896663       0.10891914       0.10887666       0.10882702       0.10879035       0.28035766       0.28024450       0.27979472       0.27978808       0.27971503       0.27970561       0.27960780       0.27953708       0.27941221       0.27927238       0.27898523       0.27889362       0.10908979       0.10896663       0.10891914       0.10887666       0.10882702       0.10879035       0.03824880       0.03818000       0.03808970       0.03808138       0.03807521       0.03804639       0.03802666       0.03802635       0.03800755       0.03800420       0.03796251       0.03794417       0.03791755       0.03790475       0.00000000       0.00000000       0.00000000       0.00000000       0.00000000       0.00000000       0.00000000       0.00000000       0.00000000       0.00000000       0.00000000       0.00000000       0.00000000       0.00000000       0.00000000       0.00000000       0.00000000       0.00000000       0.00000000       0.00000000       0.00000000       0.00000000       0.00000000       0.00000000       0.00000000       0.00000000       0.00000000       0.00000000       0.00000000       0.00000000       0.00000000       0.00000000       0.39949355       0.37602675       0.33784759       0.32032666       0.27935869       0.26811579       0.23903657       0.23893498       0.22616522       0.21441954       0.19563007       0.19547570       0.19250101       0.18415585       0.18343718       0.18237691       0.16881573       0.16595677       0.15231474       0.15222669       0.14947902       0.14127858       0.13069671       0.13064747       0.12316711       0.11565349       0.11366682       0.10693818       0.10452841       0.09626533       0.08496262       0.20327924       0.20314868       0.18778269       0.18564498       0.13463040       0.13449530       0.12632671       0.12624320       0.10784851       0.10719817       0.10474406       0.10429262       0.09501738       0.09245107       0.08792832       0.08380348       0.07856122       0.07197685       0.06632044       0.06057012       0.05838199       0.05548264       0.05190947       0.04867665       0.04617615       0.04357649       0.04135653       0.03936504       0.03749673       0.03570901       0.03421554       0.00000000       0.00000000       0.00000000       0.00000000       0.00000000       0.00000000       0.00000000       0.00000000       0.00000000       0.00000000       0.00000000       0.00000000       0.00000000       0.00000000       0.00000000       0.00000000       0.00000000       0.00000000       0.00000000       0.00000000       0.00000000       0.00000000       0.00000000       0.00000000       0.00000000       0.00000000       0.00000000       0.00000000       0.00000000       0.00000000       0.00000000