ITEM: TIMESTEP
0
ITEM: NUMBER OF ATOMS
256
ITEM: BOX BOUNDS pp pp pp
-4.5271999875605019e-02 1.4505271999875941e+01
-4.5271999875605019e-02 1.4505271999875941e+01
-4.5271999875605019e-02 1.4505271999875941e+01
ITEM: ATOMS x y z type mass id vx vy vz fx fy fz
0.0153717 1.71155 1.67556 1 63.55 4 1.67858 -3.18492 0.968082 -0.713906 0.313368 0.43643
1.86397 0.0558669 1.72321 1 63.55 3 0.365995 -1.85067 -4.9097 -0.770621 -0.500284 1.17782
3.5863 1.69349 1.80507 1 63.55 68 5.31836 -2.14686 -2.61195 0.385735 0.759494 0.398144
1.75213 1.81433 3.64162 1 63.55 6 -4.16904 -1.1383 0.724896 -0.0455598 0.328625 -0.270247
3.5681 0.181295 3.81907 1 63.55 69 1.10596 -7.11248 -1.47141 0.657803 -0.892667 -1.12124
1.74138 0.0859685 5.36145 1 63.55 7 1.65832 0.0423846 1.13371 -0.0151769 -0.48245 0.715875
1.70508 0.194308 8.94329 1 63.55 11 1.22425 -0.745891 -0.563259 0.901532 -1.10467 1.1489
3.58146 0.121547 7.29444 1 63.55 73 6.23705 -0.105484 2.65226 0.400578 -1.68957 -0.103891
1.83232 1.75935 7.23822 1 63.55 10 -1.16594 0.922101 1.50348 -0.787819 0.333215 -0.723216
0.0326986 1.90727 9.12043 1 63.55 12 2.56087 -4.32187 -0.0486273 -0.210551 -0.422458 0.27862
1.95928 1.64059 10.9199 1 63.55 14 -3.59188 -2.20995 2.20269 -1.01762 0.374998 0.0828136
1.70451 1.65024 14.4741 1 63.55 2 -3.27556 0.97836 -0.668668 0.0531446 0.962785 -0.326348
3.44488 0.0858547 14.4706 1 63.55 65 0.264344 4.31908 -0.41626 1.30862 -0.922636 0.904945
1.97716 5.35748 -0.0272103 1 63.55 18 -1.98799 6.67637 0.320898 -0.629046 -0.527235 -0.021488
1.91236 3.4964 1.73792 1 63.55 19 -2.28917 -0.191612 -0.844627 -0.198007 0.154093 -0.0861811
-0.0222856 5.18089 1.66972 1 63.55 20 -2.84335 0.695637 -2.93374 0.375472 0.421461 0.0743125
1.74094 5.20357 3.56251 1 63.55 22 4.36645 -3.22503 -1.52847 -0.382859 0.217506 -0.0709057
3.51732 5.40682 5.17541 1 63.55 88 1.57955 4.6986 -3.13447 0.78753 -0.586202 1.60634
1.6657 3.54267 5.47712 1 63.55 23 0.285412 1.29952 0.630108 0.703918 -0.0944675 -0.671492
1.76106 5.4556 7.05698 1 63.55 26 -4.2762 -2.56166 4.62883 0.225049 -0.602561 1.37362
1.84981 3.59814 8.86794 1 63.55 27 -2.61751 8.87331 3.2337 -0.794571 0.266809 1.4821
3.43242 3.57466 7.23872 1 63.55 89 -1.24808 -2.05106 -0.0570396 1.71806 0.451706 -0.948306
0.0164506 5.39631 9.11943 1 63.55 28 -1.00528 0.244963 -3.27038 -0.0301639 -0.444435 -1.42409
1.75265 5.27146 10.85 1 63.55 30 1.42561 -0.859232 -0.661326 0.751873 -0.09139 0.432581
1.7803 3.55778 12.601 1 63.55 31 0.938234 -1.21038 -0.413234 0.613765 -0.20578 0.486326
3.58847 7.2555 -0.0184559 1 63.55 97 1.16916 5.40147 -0.243851 0.545209 0.157025 0.0203568
1.7452 7.07684 1.85326 1 63.55 34 -2.12434 0.292055 1.12505 -0.721308 0.60754 -0.579925
3.45461 7.13677 3.62567 1 63.55 99 -0.999022 1.33198 -1.17825 0.441429 1.09965 -0.246512
1.84395 7.1088 5.4949 1 63.55 36 -2.30845 -0.0039064 0.67218 -0.808788 1.3785 -0.870904
3.57 7.26932 10.8523 1 63.55 103 5.11032 -0.942187 1.63632 0.287897 -0.137287 0.759951
1.81279 7.10003 9.31785 1 63.55 38 4.43215 -4.53483 3.31793 -0.369024 0.793298 -1.61788
1.71633 7.00429 12.7869 1 63.55 40 1.47485 -3.23317 -0.847935 0.287577 0.669714 -1.03843
1.88051 8.99152 -0.0187823 1 63.55 41 7.02715 -2.98336 1.13188 -0.961945 0.0915381 0.0642192
1.76359 10.9912 1.6842 1 63.55 44 2.31373 3.32307 -2.28608 -0.0188666 -0.548689 0.126708
-0.0395461 9.11781 1.68604 1 63.55 43 1.90148 -2.70064 -2.12233 0.122076 -0.212026 0.0125026
1.7243 9.14354 3.58466 1 63.55 45 -0.37614 -1.03948 0.495644 -0.678486 -0.519107 -0.0622024
3.46573 8.95112 1.91275 1 63.55 107 -3.63236 -0.751563 0.153368 0.721756 0.310307 -0.437379
3.40363 10.8974 3.58935 1 63.55 110 -1.10015 -3.09829 2.01943 0.573344 0.194103 -0.36146
3.54258 9.0439 5.31641 1 63.55 111 2.67446 -3.23413 0.989011 0.0175243 0.0337566 0.390077
-0.0131743 9.03631 5.3302 1 63.55 47 -0.157482 1.90732 -2.86484 0.17207 -0.114658 -0.0546576
0.0251232 10.9269 7.16634 1 63.55 50 1.43654 4.00028 0.558215 -0.35744 0.118908 0.518737
1.77634 10.861 5.49367 1 63.55 48 -0.465231 6.05044 0.484358 -0.452311 -0.394602 -0.840446
1.80508 10.7726 9.02818 1 63.55 52 0.384241 2.85193 2.57156 -0.438018 1.26188 0.238355
3.49587 10.9296 7.29218 1 63.55 114 0.650274 2.00546 1.77598 0.0144083 -0.320864 0.0200927
1.80058 9.04598 7.34672 1 63.55 49 -2.14033 1.30012 1.28109 0.061273 -0.864445 -0.916318
3.50622 9.04765 9.13576 1 63.55 115 -2.71361 -1.25779 1.50389 0.133103 -0.0114044 -0.211725
1.56562 9.16947 10.7978 1 63.55 53 -1.73194 -2.61521 0.52356 1.05923 -1.37163 0.884803
3.5056 9.00747 12.6727 1 63.55 119 0.832555 -3.39744 -3.55721 0.186215 -0.0879432 -0.467183
0.0419404 10.8542 10.9535 1 63.55 54 -1.0646 1.70712 7.15313 -0.673388 0.690307 -0.617582
1.72908 11.0018 12.8112 1 63.55 56 -2.54834 -0.00925772 -1.22042 0.551619 -0.483334 -0.245072
-0.0413129 8.91849 12.7752 1 63.55 55 0.33596 1.08321 -0.998196 0.453304 0.414968 -0.843335
1.83423 12.7977 0.110357 1 63.55 57 -2.30514 1.22196 0.248606 -0.599053 -0.442981 -0.896524
1.76472 12.8193 3.55957 1 63.55 59 3.31268 -3.87518 2.29547 0.135514 -0.0829415 -0.153556
-0.0299345 12.8273 1.78656 1 63.55 58 0.0761746 -0.101352 2.85237 0.0636674 -0.598188 0.175923
-0.0241537 12.8011 5.29661 1 63.55 60 1.30494 3.25034 -5.5704 -0.0903708 -0.483935 0.216959
3.43235 12.6534 5.44353 1 63.55 124 -2.98534 -0.910728 3.56869 0.709364 1.27538 -0.605008
1.8409 12.6785 7.07814 1 63.55 61 -1.59002 -0.0728178 1.45182 -0.782515 0.71428 1.37862
3.55866 12.8077 9.0352 1 63.55 126 -0.142882 2.83925 -0.855336 -0.0339515 0.274781 -0.433529
0.0526438 14.3644 7.31289 1 63.55 9 -3.20703 -5.53776 -0.170459 -0.751083 0.875072 -0.961077
1.91864 12.7564 10.7747 1 63.55 63 2.00492 -5.09205 -0.0440737 -0.291179 -0.165185 0.715412
0.159298 12.8401 9.10546 1 63.55 62 -2.52605 0.524575 3.74458 -0.51096 -1.60656 -0.321119
-5.97105e-05 14.3674 10.9024 1 63.55 13 2.32681 -1.23384 -4.06391 0.121577 1.12218 0.395801
3.54872 13.0098 12.7578 1 63.55 128 -1.25549 -4.58994 2.50738 0.329223 -1.48999 -0.352286
1.66505 14.4099 12.749 1 63.55 15 0.304686 -0.957853 2.52238 -0.586993 0.532592 -0.31543
5.4716 0.07978 1.6931 1 63.55 67 -4.10458 -2.72535 0.566126 -0.0608484 -0.787694 0.496104
5.30641 1.73602 0.0522374 1 63.55 66 -1.31004 -0.61708 -2.45879 1.02054 0.83522 -0.29236
5.57159 1.87787 3.54851 1 63.55 70 -1.43195 0.306136 2.35311 -0.5081 -0.208727 0.12288
3.76056 1.71165 5.56664 1 63.55 72 0.485762 0.791607 -1.31839 -0.40725 0.921612 -0.535609
7.18551 1.82807 9.04831 1 63.55 140 0.709265 -0.893749 1.43328 0.888241 -0.374954 -0.339158
3.67345 1.80168 9.00345 1 63.55 76 1.1309 -3.49828 -5.32694 0.0783593 -0.0957104 0.262256
5.47881 1.7276 7.24942 1 63.55 74 4.83421 4.12422 0.0748766 0.222038 0.192255 -0.0209529
5.48128 1.68285 10.8317 1 63.55 78 -2.30282 0.460015 3.91681 0.0501227 0.611851 0.242181
3.74113 0.00731815 10.7609 1 63.55 77 -3.11628 -0.0386634 -0.787958 -0.579849 -0.0210745 -0.108273
5.43863 0.13704 12.7301 1 63.55 79 2.10638 -0.632352 -0.798881 0.789105 -0.802535 -0.06306
7.18975 -0.020364 14.3164 1 63.55 129 -1.40778 1.75871 -1.13499 0.359137 0.119962 0.971369
3.68146 1.57121 12.7455 1 63.55 80 4.27737 2.24519 1.06865 -1.05095 1.77095 -0.943909
5.33742 5.41904 0.0424739 1 63.55 82 -1.33572 2.68873 -2.21313 0.58359 0.294868 -0.214179
7.17776 3.62534 0.0562368 1 63.55 145 -1.20032 3.36474 -3.47454 -0.466166 0.539421 -0.152487
3.62268 5.56604 1.82454 1 63.55 84 1.23644 5.18018 -0.805739 -0.00904366 -0.748072 0.0613119
5.33731 3.85219 1.91903 1 63.55 83 4.4211 2.75397 -0.138896 0.264287 -1.29269 -0.306805
5.45359 5.51738 3.62292 1 63.55 86 -3.40377 -0.933269 2.6773 0.25192 -0.171761 0.291707
3.65871 3.5027 3.74367 1 63.55 85 -1.47195 -0.803593 0.389508 -0.27464 -0.243102 -0.542632
5.35803 5.45114 7.20675 1 63.55 90 2.47332 -5.86868 -3.64031 0.641782 -0.607681 -0.443071
7.16426 3.54003 7.20761 1 63.55 153 -2.38856 1.38897 3.53303 0.555813 0.639424 -0.143324
5.41318 3.58083 5.52063 1 63.55 87 2.80351 -1.8952 1.40492 0.0723435 0.265962 -0.4347
3.60637 5.49153 8.90304 1 63.55 92 1.36349 -4.07805 0.0717793 -0.0659411 -0.485747 0.634633
7.14008 5.60808 8.96503 1 63.55 156 4.27767 0.773258 1.33592 -0.0849733 -0.823468 0.25676
5.42812 5.47451 10.7722 1 63.55 94 -2.22153 0.939117 0.530226 -0.043813 -0.319793 0.0894499
3.62841 3.43571 10.8466 1 63.55 93 0.0468262 4.52929 3.70899 0.166156 0.813691 0.216714
5.43726 3.53123 9.06604 1 63.55 91 0.588662 -0.465996 -1.16094 -0.467004 0.792641 -0.419113
3.78842 5.55054 12.6644 1 63.55 96 1.6562 1.04604 -0.375692 -0.866084 -0.644474 -0.171585
3.67802 3.48253 14.4661 1 63.55 81 0.739215 2.38014 2.72245 -0.677618 0.380396 0.172842
5.38292 3.66688 12.7418 1 63.55 95 0.789623 -1.96865 1.80121 0.368237 -0.41991 -0.603299
7.21768 7.19197 0.0977972 1 63.55 161 -3.91647 -0.0434963 -3.75321 0.0761507 0.0299935 -0.590975
5.59 7.25978 1.84243 1 63.55 98 -1.87731 2.87685 3.69016 -0.930029 -0.102628 0.0741274
5.42538 7.38625 5.25137 1 63.55 100 -1.5386 0.220677 1.29941 0.240923 -0.359907 0.326575
7.12746 7.35897 7.17059 1 63.55 165 0.885329 -0.0223883 -2.21177 -0.40504 0.529499 -0.086229
3.84192 7.22444 7.09216 1 63.55 101 -1.22424 6.63199 6.84619 -1.27304 0.704161 0.112748
5.31827 7.36774 9.03253 1 63.55 102 0.473103 -2.25392 0.666739 0.599 -0.200343 0.0307354
5.54244 7.225 12.6549 1 63.55 104 3.42016 -2.38437 2.03918 -0.433447 0.52968 0.463822
7.21517 7.31916 10.8992 1 63.55 167 1.77175 -1.63205 0.859903 0.0310052 -0.269013 -0.605669
5.35123 9.15444 0.0116918 1 63.55 105 0.918814 -1.18326 0.714824 0.412149 -0.728156 -0.0321218
7.22736 10.8493 0.0329125 1 63.55 170 -4.03983 -4.54466 0.358067 0.0285582 0.0723738 -0.128391
5.38142 10.9613 1.85072 1 63.55 108 -3.26521 -2.38179 -4.35106 -0.27877 -0.295362 -0.359175
5.462 9.12694 3.53502 1 63.55 109 -4.38037 3.36582 -1.59659 -0.660699 0.117564 0.25483
7.22015 9.17308 5.35942 1 63.55 175 2.39835 0.0463891 1.27099 0.051571 -0.103487 0.568973
5.09304 11.0105 5.45841 1 63.55 112 -3.39771 5.11994 -2.88144 1.4934 -0.84333 -0.772132
5.32628 9.32201 7.37008 1 63.55 113 -0.902031 -3.88714 -7.52282 0.438168 -0.60088 -0.571376
5.37365 9.10559 10.7808 1 63.55 117 1.90302 3.80739 -3.03196 -0.342895 -0.170807 0.782598
5.18641 11.0638 9.1006 1 63.55 116 -1.1108 0.949729 -4.61507 1.02474 -0.473284 0.614838
7.19623 9.23544 9.18604 1 63.55 179 -1.54793 1.26715 2.81716 -0.0366686 -0.848015 -0.973006
5.446 10.9063 12.6613 1 63.55 120 3.87403 1.12911 -0.985159 -0.556341 -0.571417 0.226562
7.16646 10.7508 10.9867 1 63.55 182 0.104254 0.20469 1.55044 0.290142 1.03346 -0.521186
3.62008 10.932 10.9453 1 63.55 118 1.72759 -5.22608 0.223362 -0.503554 0.0526057 0.310584
3.59493 10.768 14.4272 1 63.55 106 -3.48814 -0.605725 -1.61604 0.0119342 0.997074 0.434324
3.6537 12.7889 1.70031 1 63.55 122 -0.854596 -3.08908 -2.37356 -0.0836523 0.00762402 -0.113735
5.1446 12.7853 3.54098 1 63.55 123 2.20187 -2.13601 -5.68843 0.835167 0.0419191 0.693951
7.13711 12.739 1.84934 1 63.55 186 2.23033 1.02198 -0.21112 0.164738 -0.32234 -0.672633
7.22603 14.4505 3.55047 1 63.55 133 0.487526 6.69164 3.45577 -0.155731 -0.0116554 0.0548779
5.51744 14.3761 5.55745 1 63.55 71 0.361126 -1.30649 5.43481 -0.7521 0.273794 -0.72421
5.6863 14.4461 8.9576 1 63.55 75 1.65655 4.85574 -4.85266 -0.711827 -0.140283 0.116543
5.46579 12.562 7.2448 1 63.55 125 0.413229 3.66159 -4.41735 -0.00755224 0.811567 0.111083
5.40631 12.9028 11.0973 1 63.55 127 -1.21492 -0.114721 5.0656 0.34042 -0.884705 -0.914263
5.47083 12.6751 14.3337 1 63.55 121 -0.358054 -0.1515 -1.5299 -0.472668 0.300902 0.880322
10.8461 1.84199 1.59939 1 63.55 196 -1.2377 0.527852 1.09332 0.0919088 -1.19083 0.863546
8.94187 -0.00269704 1.60066 1 63.55 131 -3.09382 -2.41486 2.21571 0.151316 0.149076 0.404475
7.25596 1.98081 1.7626 1 63.55 132 2.72673 -5.80302 -3.20935 0.163693 -0.569853 0.351711
7.30298 1.70761 5.24075 1 63.55 136 2.81664 -2.40675 3.66363 -0.694961 0.249764 0.910663
9.09115 1.6094 3.66506 1 63.55 134 0.51096 0.774365 0.103479 0.125991 0.896996 -1.15676
9.01623 1.8219 7.0751 1 63.55 138 -1.24256 0.770292 0.800261 0.437328 -0.0509565 0.452655
7.37943 0.0597105 7.03582 1 63.55 137 -1.26031 0.426293 0.504154 -0.301185 -0.812719 0.792922
8.93212 0.0255609 8.88792 1 63.55 139 -3.097 1.0635 -0.923421 -0.272329 -0.103877 0.898321
10.8035 0.0241276 7.43983 1 63.55 201 0.902767 -5.20623 -2.13943 0.683981 -0.00731599 -1.22773
10.6262 0.113758 10.7861 1 63.55 205 -1.92015 -3.65856 2.31471 0.414387 -0.591633 0.486087
10.8616 1.84129 9.14412 1 63.55 204 -0.485664 -3.5979 -0.52177 0.240911 -0.743761 -0.617411
8.97445 1.94876 10.9748 1 63.55 142 2.04979 3.33599 -1.60472 0.362696 -0.336087 -0.829882
7.34745 0.0548665 10.9577 1 63.55 141 -2.65754 -2.51521 0.425169 -0.26127 -0.269789 -0.249857
10.7567 0.0115188 14.4406 1 63.55 193 -0.509778 0.892327 1.39717 0.516619 -0.373146 -0.126162
9.05324 2.03229 14.4154 1 63.55 130 -2.31915 0.348293 0.583512 0.151139 -1.33654 0.937608
9.0119 0.118068 12.7006 1 63.55 143 3.74073 -1.34601 -0.9496 0.358425 -0.582088 0.134422
7.28104 1.98505 12.8007 1 63.55 144 1.17389 -0.00915541 1.63738 -1.35774 -0.787778 -0.571214
10.7343 5.34469 1.72605 1 63.55 212 1.38433 1.27387 1.59079 0.631001 0.741223 0.317777
8.9549 5.37487 0.00446879 1 63.55 146 0.980024 -0.617634 -2.66457 0.487716 0.12965 -0.221658
9.2727 3.49912 1.86975 1 63.55 147 -2.21934 2.96918 1.97913 -1.46042 0.509374 0.0438241
7.39241 5.2785 1.90123 1 63.55 148 0.386319 -0.0433702 -2.3532 -0.190516 0.331673 0.29583
9.15974 3.53401 5.38548 1 63.55 151 3.96269 0.39243 -1.83938 0.220771 -0.127904 1.21107
9.25825 5.46349 3.69339 1 63.55 150 -0.382199 -1.94986 3.7987 -0.62088 -0.369266 -0.529533
7.28125 5.44517 5.3369 1 63.55 152 -2.48901 3.49964 -3.26278 -0.23709 0.535589 0.947745
7.50249 3.66112 3.86849 1 63.55 149 0.13236 2.24308 -4.95386 -1.32862 -0.339067 -2.03824
10.81 5.17127 5.49246 1 63.55 216 1.00924 -3.57323 1.8417 0.569586 1.12207 0.257335
8.94036 5.75223 7.29841 1 63.55 154 0.898213 -1.92591 -1.02324 0.178508 -2.08939 -0.30457
10.8104 5.52497 9.02176 1 63.55 220 1.38161 3.36486 4.98356 0.0247863 -0.230219 -0.0823663
9.1231 3.59697 8.82225 1 63.55 155 0.401548 1.43499 -1.47244 -1.17255 0.37989 0.317851
7.23611 3.55051 10.725 1 63.55 157 -4.62934 1.48845 3.24173 -0.743285 0.517149 0.514874
8.8837 5.22636 10.85 1 63.55 158 -3.51436 1.46612 -3.47087 0.41764 0.85643 -0.69039
10.7928 3.64808 10.5892 1 63.55 221 -0.625473 0.244307 -4.0718 0.472803 0.198087 1.56859
10.7645 5.35428 12.5269 1 63.55 224 -1.12291 -2.83241 2.06743 0.0247957 -0.133339 0.516769
7.26268 5.40546 12.6943 1 63.55 160 -0.28875 1.05842 -0.118579 -0.966581 -0.274811 0.114061
8.93881 3.61891 12.7372 1 63.55 159 -2.98179 3.77704 -0.327012 0.794501 1.02179 -0.599402
10.8239 7.25498 0.0797166 1 63.55 225 -1.89061 -0.280551 -1.73525 0.065817 -0.700382 -0.628779
7.38561 7.30932 3.58649 1 63.55 163 -2.63736 -3.57046 -0.662682 -0.466384 -0.381743 0.366438
9.07373 7.23081 1.84553 1 63.55 162 0.670698 0.953344 -1.46823 -0.0160287 0.05119 -0.210474
9.13322 7.16368 5.45488 1 63.55 164 1.27215 2.3328 0.0889771 -0.325315 0.589231 -0.44228
10.8594 7.23578 7.16212 1 63.55 229 5.59351 -2.30011 -0.134375 0.594042 -0.274935 0.603794
8.94455 7.27454 9.0659 1 63.55 166 3.11669 0.758073 1.24159 0.0414035 0.493167 0.523735
10.6648 7.1653 10.8049 1 63.55 231 0.693242 0.860588 2.49836 0.857344 -0.211202 -0.0552664
8.9703 7.07525 12.6159 1 63.55 168 0.583218 -0.206698 1.51622 0.116927 0.368817 0.55026
9.20076 10.9372 1.69704 1 63.55 172 1.18925 -0.546691 -2.77245 -1.55011 -1.75194 0.260266
7.23197 9.10854 1.85107 1 63.55 171 -2.72303 -0.52777 0.182979 0.693333 0.290527 -0.257367
9.25478 8.87593 3.73876 1 63.55 173 -5.9395 1.59748 2.44097 -0.111458 0.966082 -0.572521
7.23467 10.9211 3.64539 1 63.55 174 4.56632 2.52968 -2.99961 0.0114239 0.120767 -0.24819
10.8604 9.02368 5.60689 1 63.55 239 3.40085 -0.38637 -2.41005 0.602335 0.583164 -0.939649
9.09787 10.8622 5.43432 1 63.55 176 2.23497 0.0470539 -0.669354 0.110709 -0.276645 -0.0778958
9.13594 8.96485 7.31948 1 63.55 177 0.403125 0.133459 -2.63881 -0.771062 0.655833 -0.192791
9.026 10.8955 9.00682 1 63.55 180 0.921493 0.102197 2.56597 1.0194 -0.215704 0.71768
7.34913 10.9052 7.36216 1 63.55 178 -1.21619 -4.13547 2.47434 -0.726961 -0.209077 -1.01427
9.09979 9.06475 10.8377 1 63.55 181 -3.12923 -0.462861 -2.0692 -0.288364 0.0995852 -0.268641
10.8617 10.89 10.8511 1 63.55 246 -1.68891 0.777345 0.209934 -0.0858627 -0.827307 -0.424259
9.0143 10.7817 12.6284 1 63.55 184 3.67461 -1.38153 2.43766 0.099189 0.240689 0.156289
10.7297 8.78489 12.6242 1 63.55 247 -3.88492 -0.0121626 -0.330095 0.541195 0.946064 0.205928
8.95003 8.98275 14.4066 1 63.55 169 5.37683 2.47408 0.0387725 0.294516 -0.170428 0.818039
10.736 10.6909 14.4009 1 63.55 234 -0.351142 -0.314637 -3.9884 0.582974 0.114957 -0.425732
7.30206 9.01412 12.6918 1 63.55 183 -1.01294 -4.49738 -0.964226 -0.787153 -0.0948778 0.17918
10.7747 12.5531 1.59819 1 63.55 250 -0.648078 -1.54419 2.80548 0.851903 1.48828 0.286805
9.12103 12.5866 3.41094 1 63.55 187 -1.07382 1.39749 1.51502 -0.500029 0.942118 0.636489
9.08223 14.497 5.29035 1 63.55 135 -1.68477 -1.58371 -0.263488 0.559274 -0.85599 0.630756
10.8452 12.6681 5.15428 1 63.55 252 -3.27147 -0.606423 0.56627 0.127134 0.483847 1.40503
7.27904 12.6796 5.4127 1 63.55 188 -1.16027 0.128203 -3.20887 0.054587 -0.401239 -0.163457
9.2045 12.5882 7.16216 1 63.55 189 3.46772 0.03846 -2.04019 -0.202859 0.664732 0.0633379
10.8015 12.7936 9.1037 1 63.55 254 -3.38018 2.39526 -0.952587 -0.0473878 -0.86165 0.109972
9.04523 12.71 10.8479 1 63.55 191 0.449865 -1.57082 6.35599 -0.351433 -0.043904 0.123502
7.26915 12.6005 9.1964 1 63.55 190 -1.57982 1.24168 -5.19399 -0.272083 0.259542 -0.249116
10.7859 12.5209 12.5059 1 63.55 256 0.355536 0.0796802 -4.25679 0.23155 1.00612 1.19333
7.2601 12.5875 12.6692 1 63.55 192 3.14161 -2.17487 3.04417 0.42611 0.559332 -0.178014
8.97674 12.6737 14.4445 1 63.55 185 1.77536 0.707 -3.48327 0.0960328 0.0787906 -0.227837
12.5693 1.92151 0.0331172 1 63.55 194 -0.0317352 2.15181 -2.59791 0.791161 -1.10293 -0.466131
10.9226 0.0558189 3.53014 1 63.55 197 1.04102 2.01604 0.961221 -0.222406 -0.524456 -0.374284
12.6893 1.76761 3.61928 1 63.55 198 4.45776 1.8528 -1.09312 0.226515 -0.0131109 -0.516227
14.4359 0.0974719 3.63295 1 63.55 5 -1.37903 -1.19198 -4.13612 0.250483 -0.481334 -0.629431
14.5001 1.76352 5.47657 1 63.55 8 -2.88803 -1.54011 -3.15138 -0.485571 -0.146213 -0.0831133
11.0071 1.74326 5.49773 1 63.55 200 2.31986 -1.93925 -2.27664 -0.458332 -0.319195 0.365323
12.8636 1.68526 7.4369 1 63.55 202 -1.59688 2.53108 3.6069 -0.733044 -0.25788 -0.235405
12.7378 1.64696 10.908 1 63.55 206 0.912053 2.71975 -3.32305 -0.0741725 0.576085 -0.120902
10.8739 1.86686 12.6457 1 63.55 208 0.952839 -1.85465 0.47806 0.186186 -0.0436178 -0.23694
14.4794 1.83375 12.798 1 63.55 16 -5.18508 -2.30405 -0.446789 -0.239702 -1.45833 -1.278
12.6692 5.40849 0.114403 1 63.55 210 3.03597 -1.16931 -0.512824 -0.160129 0.0751671 -0.839568
12.495 3.68196 1.80966 1 63.55 211 -5.87189 -3.07744 4.12626 0.755367 -0.952943 -0.4587
14.4341 3.51003 3.49201 1 63.55 21 2.33385 1.37658 4.2398 0.237618 -0.245584 0.373078
12.666 5.21723 3.58667 1 63.55 214 -0.911728 1.9907 4.48244 -0.0308728 0.769778 0.359279
10.9155 3.36422 3.642 1 63.55 213 4.44231 3.7717 -0.917825 -0.308057 0.653112 0.13518
14.4354 5.2863 5.40797 1 63.55 24 1.09985 -0.654684 1.40157 0.0549013 0.341825 -0.308667
14.5039 3.51692 7.16117 1 63.55 25 0.446865 -0.411289 0.370316 -0.171434 0.662284 0.920253
12.6231 3.56483 5.53341 1 63.55 215 1.5096 2.47709 3.19771 0.643727 -0.437696 -0.466555
11.0138 3.50742 7.3917 1 63.55 217 -1.91369 0.0607714 -2.4713 -0.20818 -0.0437044 -0.440319
12.5742 5.3746 7.23654 1 63.55 218 -4.46938 -3.90457 -0.463674 0.718164 0.148509 0.29247
14.4452 3.61365 10.8659 1 63.55 29 0.503956 1.12176 0.882736 0.744875 -0.828705 0.434307
12.8103 3.76978 9.15288 1 63.55 219 -0.0930873 -3.69972 0.670477 -0.675489 -0.884547 -0.778085
12.7233 5.33265 10.9878 1 63.55 222 1.77684 5.04723 -1.9037 -1.02167 0.460511 -0.48268
10.8858 3.67314 14.3634 1 63.55 209 1.58105 2.86355 0.819866 -0.479575 0.421657 0.437873
14.4704 5.21919 12.6929 1 63.55 32 0.598443 -2.00688 3.40663 0.490356 1.10852 0.420747
14.501 3.46104 14.3777 1 63.55 17 -1.2578 0.0673284 1.87046 0.538132 1.06806 1.69935
12.7109 3.62815 12.8025 1 63.55 223 5.5521 2.14939 -2.84222 -0.721409 -0.267788 -1.03118
12.9344 7.21815 1.78151 1 63.55 226 -5.10807 -1.98163 -1.11389 -1.1035 -0.132357 -0.411781
14.4869 7.08252 3.54035 1 63.55 35 6.22037 1.33488 -0.728475 0.458527 0.134549 0.819236
11.0672 7.0704 3.66312 1 63.55 227 4.71576 1.31199 -1.06491 -0.27174 0.268556 -0.143897
12.7383 7.15449 5.53634 1 63.55 228 3.8886 1.7669 2.50456 -0.149941 0.0305503 -0.724782
12.6255 7.25949 8.95682 1 63.55 230 -1.96457 5.71779 1.74073 0.291584 -0.468573 0.167978
14.4894 7.10111 7.23728 1 63.55 37 0.366101 0.994247 2.97922 0.292962 0.322411 0.117524
14.4006 7.00038 10.7582 1 63.55 39 -0.656633 -0.22899 -4.00161 0.243023 1.41471 1.34215
12.5167 7.07546 12.7711 1 63.55 232 3.19603 2.05901 6.31603 0.521083 0.0896409 -0.407789
14.4635 7.16899 14.3736 1 63.55 33 -2.44701 -0.754692 -1.9136 0.251446 -0.394373 0.962955
10.8971 8.9582 1.72112 1 63.55 235 -0.544837 0.594828 -1.61864 0.0504282 0.399427 0.504981
12.5707 10.8624 1.7555 1 63.55 236 2.94773 -3.10801 -0.352245 0.146312 -0.647694 -0.0934674
14.3868 11.0051 3.36459 1 63.55 46 -1.60365 -1.62079 -3.93521 0.708466 -0.750361 0.96372
10.9154 10.8789 3.59134 1 63.55 238 -2.64132 -1.7517 -1.17845 -0.142877 -1.02272 -0.195506
12.6253 8.90943 3.59891 1 63.55 237 -0.332058 4.03869 -0.120691 0.392379 0.758235 0.226662
12.7265 10.9565 5.34451 1 63.55 240 3.17071 1.45091 2.95451 0.0565952 -0.263009 0.0705304
12.8514 9.13067 7.082 1 63.55 241 -2.13002 -2.33671 -3.23224 -0.355187 -0.274578 0.639824
14.5035 8.94403 8.92923 1 63.55 51 0.727651 1.15184 -1.20212 -0.312775 0.298087 0.527448
10.962 9.00928 9.03333 1 63.55 243 1.26104 -0.3693 2.75894 -0.368838 0.0979861 0.1354
11.0772 10.8538 7.39586 1 63.55 242 0.216899 -1.36975 -3.35819 -0.766025 0.25902 -0.807087
12.647 10.8689 9.19855 1 63.55 244 -4.93091 -3.709 4.12356 1.11328 0.10352 -0.175689
12.7404 10.7783 12.5539 1 63.55 248 0.131229 2.11137 4.64017 -0.725132 -0.107132 0.020888
12.7066 8.89701 10.8864 1 63.55 245 -3.11021 1.44183 2.07976 0.0115072 0.0871721 0.143162
12.6711 9.05159 14.3236 1 63.55 233 4.21972 2.15533 5.40693 -0.379835 -0.211523 0.83154
14.3318 10.9301 14.4563 1 63.55 42 1.91304 -2.85141 -0.0516498 1.32233 -0.868967 0.731463
12.6 14.3234 1.74458 1 63.55 195 -2.28741 1.06305 -0.334541 -0.539091 0.949192 -0.0890873
14.2695 14.3725 0.0639935 1 63.55 1 -3.39685 1.13883 0.321607 0.458178 0.692187 -1.46415
12.6453 12.6814 3.50484 1 63.55 251 0.751305 -2.5102 4.27896 0.0221598 0.389547 0.132955
12.6568 14.4932 5.39839 1 63.55 199 1.12248 1.32715 2.66753 0.0466228 -0.222736 0.525985
12.755 12.6983 7.25966 1 63.55 253 -1.03023 -4.54475 -7.96956 -0.299567 0.044961 -0.0329515
12.6132 14.3171 9.22499 1 63.55 203 -2.19364 -3.12638 -5.24809 0.639391 1.16125 -0.685367
12.5373 14.3412 12.5614 1 63.55 207 -3.29896 1.02682 -2.33387 0.126804 0.670782 0.959435
12.7791 12.6901 10.9084 1 63.55 255 0.455537 0.0232509 2.03448 -0.389944 -0.943011 -0.214182
12.5698 12.4212 14.4832 1 63.55 249 -0.265247 2.23558 -0.352789 -0.598505 1.3714 -0.586942
14.4915 12.5757 12.7521 1 63.55 64 -2.51801 -0.979208 0.216025 -0.117668 1.03742 -0.206551
ITEM: TIMESTEP
100000
ITEM: NUMBER OF ATOMS
256
ITEM: BOX BOUNDS pp pp pp
-5.6180644803043883e-02 1.4516180644802803e+01
-5.6180644803043883e-02 1.4516180644802803e+01
-5.6180644803043883e-02 1.4516180644802803e+01
ITEM: ATOMS x y z type mass id vx vy vz fx fy fz
-0.185669 1.66468 1.77592 1 63.55 4 -0.150687 1.39175 0.694998 0.979413 0.0100392 0.0837716
1.70815 -0.0963173 1.72637 1 63.55 3 2.79651 -3.45829 -0.247609 0.435684 0.646952 0.0658135
3.57951 1.79672 1.65826 1 63.55 68 -2.2887 -2.5672 -1.55911 0.0947537 -0.225922 0.426648
1.78008 1.69068 3.50743 1 63.55 6 -3.31783 -2.0127 2.61092 -0.169838 0.477887 0.397979
3.56944 0.023087 3.6688 1 63.55 69 0.0577698 0.370225 3.44283 0.205303 -0.110616 -0.435042
1.76162 -0.105659 5.38715 1 63.55 7 0.686133 -0.135836 -0.370612 -0.217726 0.382201 0.297549
1.87603 -0.31221 8.97652 1 63.55 11 0.596977 -1.12505 -3.0532 -0.376663 1.30802 -0.605194
3.51048 -0.216064 7.06375 1 63.55 73 1.68389 5.55773 -0.984171 0.657755 0.32833 0.439275
1.88096 1.69174 7.15613 1 63.55 10 0.499107 8.42642 -3.26499 -0.470472 0.0548923 0.286879
0.0303198 1.56759 9.06525 1 63.55 12 5.72438 0.721721 2.33117 0.0299997 0.609885 -0.0673537
1.7947 1.62237 10.8419 1 63.55 14 -1.65434 2.26411 -1.45415 -0.0329283 0.338729 -0.132491
1.65697 1.93657 14.4394 1 63.55 2 1.68808 -0.452849 -0.37933 0.607224 -1.55762 -0.379874
3.5473 0.180434 14.4741 1 63.55 65 5.34632 -1.29388 2.00932 -0.185716 -1.1051 0.566594
1.75489 5.31371 -0.0725421 1 63.55 18 0.0738586 3.64377 -0.433083 0.475563 0.544303 -0.0246965
1.76241 3.49804 1.66081 1 63.55 19 1.05394 -2.29783 0.206026 -0.0718144 0.253131 0.916704
0.0277604 5.32995 1.74548 1 63.55 20 -5.30358 0.570587 0.123166 0.159581 0.59575 0.264365
1.62823 5.37461 3.59853 1 63.55 22 -2.33912 2.43954 -3.31291 -0.097909 0.586522 0.0348581
3.29043 5.30045 5.298 1 63.55 88 -0.874635 -2.25012 0.344511 1.35111 0.343553 0.222369
1.60758 3.59182 5.57483 1 63.55 23 1.43049 -0.885207 -2.01509 0.671688 -0.0881568 -0.473315
1.79092 5.40672 7.26634 1 63.55 26 7.14912 1.23845 1.11835 -0.137248 0.344295 0.160172
1.66864 3.6582 9.00267 1 63.55 27 2.62865 1.61966 -2.01455 0.775647 -0.600315 -0.270136
3.65108 3.59036 7.30204 1 63.55 89 -0.748351 0.982645 1.79227 -0.249174 0.129536 -0.750502
-0.122759 5.4124 9.15414 1 63.55 28 -0.226075 1.19946 1.0509 0.207029 0.40255 -0.964518
1.89722 5.3751 10.8286 1 63.55 30 3.2669 -0.348608 -3.33356 -0.845062 0.596386 -0.240848
1.71767 3.61043 12.5452 1 63.55 31 3.24955 1.76252 -6.57577 0.269089 -0.413804 0.15243
3.525 7.29922 -0.011083 1 63.55 97 -1.1356 2.6219 2.4496 -0.268635 -0.344879 0.257616
1.65579 7.29142 1.71408 1 63.55 34 2.28177 2.81152 -2.13795 0.391638 -0.215626 0.19664
3.6791 7.1284 3.52015 1 63.55 99 -5.22606 2.42882 1.45481 -0.744233 0.305596 0.461022
1.75967 7.38622 5.57832 1 63.55 36 0.638311 0.101966 -0.678902 -0.325229 -0.593844 -1.05183
3.52214 7.16041 10.8163 1 63.55 103 -0.822113 0.252134 0.383103 -0.141027 0.66138 0.181112
1.6112 7.29762 8.93142 1 63.55 38 -1.90659 -0.215757 -3.94945 0.918973 -0.185952 0.593221
1.83933 7.3351 12.8001 1 63.55 40 2.13533 0.0539957 -0.0448543 -0.29656 -0.0837304 -0.276081
1.64251 9.26825 0.157843 1 63.55 41 3.2452 -0.399229 0.0509685 0.380933 -0.593634 -0.730137
1.69391 10.9976 1.94608 1 63.55 44 -4.5295 0.702054 1.99807 -0.150641 -0.496835 -0.757127
-0.209761 9.26434 1.77691 1 63.55 43 2.18928 2.41965 -3.15795 0.155563 -0.488165 0.413296
1.82848 9.04123 3.68039 1 63.55 45 0.482357 -0.549121 0.88269 -0.434265 -0.0987431 -0.47003
3.54948 8.97881 1.80617 1 63.55 107 0.179088 -1.16391 2.14851 0.0658703 -0.000683597 0.0508779
3.53027 10.8551 3.41265 1 63.55 110 -3.38254 -3.19945 0.266 0.688131 0.113038 0.592122
3.58688 9.119 5.44299 1 63.55 111 0.626438 0.374663 1.43073 -0.126295 -0.226237 -0.718991
-0.214293 9.06875 5.29308 1 63.55 47 -0.652137 -3.20973 1.2818 0.484186 -0.222883 0.463193
-0.0440793 10.8116 7.20616 1 63.55 50 0.23237 -0.8624 -5.21261 -0.387431 0.134827 0.0957404
1.76152 10.8455 5.4166 1 63.55 48 -3.61559 5.05573 -1.0822 -0.351496 0.0780166 -0.636288
1.91091 10.6271 9.04164 1 63.55 52 0.787596 -0.00110556 1.24348 -0.804308 0.907488 -0.0915736
3.66794 10.8384 7.15021 1 63.55 114 -3.48995 2.0144 0.945663 -0.235848 0.169795 0.546642
1.72975 9.16892 7.25594 1 63.55 49 5.54194 2.29785 -0.152659 0.143689 -0.772634 -0.517887
3.5821 8.87997 9.07635 1 63.55 115 -3.75976 -0.051921 0.409935 0.288235 0.202749 -0.385481
1.74422 9.18604 10.9836 1 63.55 53 -3.95489 1.63667 4.15969 0.103901 -1.11582 -0.278272
3.64653 9.16079 12.7026 1 63.55 119 1.28573 0.00460036 -2.50662 -0.162575 -0.0327588 0.0882481
-0.025651 10.8579 10.8153 1 63.55 54 1.21852 2.29184 1.74511 -0.191212 0.0151478 0.34862
1.71221 10.9808 12.6831 1 63.55 56 -0.924557 2.45489 -0.18848 0.379505 -0.533292 0.218456
0.00861068 9.03612 12.7719 1 63.55 55 -3.40279 3.52696 -2.61617 -0.394334 0.0103432 0.0428234
1.75645 12.7428 -0.125509 1 63.55 57 2.75476 -2.87363 0.00607982 0.249763 -0.798441 0.545999
1.85809 12.8229 3.56849 1 63.55 59 -1.6099 3.42597 -2.4416 -0.462295 -0.689139 0.264773
-0.0464453 12.6501 1.81445 1 63.55 58 -3.6432 -0.215729 -1.7417 -0.180296 0.678457 -0.444082
-0.0505202 12.6895 5.43069 1 63.55 60 -0.353605 2.3553 1.03351 0.222622 -0.0904262 -0.0615316
3.55361 12.5822 5.31126 1 63.55 124 -4.12976 -1.39567 -2.44703 0.0299388 0.396251 0.324229
1.87276 12.5403 7.21451 1 63.55 61 0.416049 -2.39641 0.677695 -0.840566 -0.0988687 -0.232909
3.57191 12.5358 8.95171 1 63.55 126 0.0881419 -3.10162 2.27895 0.533072 0.307064 -0.157755
0.00788961 14.3956 7.33505 1 63.55 9 3.53084 0.149906 -1.22987 -0.0679369 0.169336 -0.561475
1.80417 12.5499 10.6374 1 63.55 63 -1.76645 2.05514 -1.96392 0.314642 -0.0674772 1.48481
0.0443273 12.5538 9.05421 1 63.55 62 1.12921 5.60431 -1.82018 -0.870282 -0.184401 -0.710909
0.151124 14.3198 10.7807 1 63.55 13 -0.918345 -6.0013 1.55252 -0.565678 0.607491 0.555468
3.56953 12.6202 12.6305 1 63.55 128 -1.95434 -2.21381 0.895851 -0.00131087 -0.0396497 0.403443
1.91222 14.4676 12.7767 1 63.55 15 1.80235 -4.55055 -2.932 -0.627598 0.260687 -1.20694
5.41103 -0.0690781 1.93346 1 63.55 67 -4.12355 -0.846926 -0.133458 0.128064 0.200167 -0.78825
5.43585 1.63386 -0.169803 1 63.55 66 -1.19032 2.05805 3.4948 -0.0156576 0.724634 1.00638
5.37756 1.80813 3.60939 1 63.55 70 -3.34139 -2.37596 3.4406 0.474883 -0.556781 0.295277
3.69894 1.90299 5.35542 1 63.55 72 -2.39902 0.937966 -1.68358 -0.766493 -0.169022 0.460443
7.16449 1.7275 9.06662 1 63.55 140 1.87539 0.141072 -0.618658 0.203107 0.502174 -1.12726
3.56552 1.73107 8.91176 1 63.55 76 2.34086 -2.79481 1.28714 -0.316636 -0.348607 0.479667
5.39288 1.58662 7.27129 1 63.55 74 2.71623 -0.917073 0.942391 -0.175746 0.874463 -0.258848