64
Lattice="10.862 0.0 0.0 0.0 10.862 0.0 0.0 0.0 10.862" Properties=species:S:1:pos:R:3:atomic_forces_forces:R:3:kliff_descriptor_symmetry_function_descriptors:R:51 PBC="1 1 1" energy_energy=-264.5584 kliff_descriptor_symmetry_function_descriptor_type=symmetry_function kliff_descriptor_symmetry_function_cut_dists="{\"Si-Si\": 4.0}" kliff_descriptor_symmetry_function_cut_name=cos kliff_descriptor_symmetry_function_hyperparams=set51 pbc="T T T"
Si      10.85880000       0.03415980      10.81620000       0.65600500       0.22748800       0.27979800       1.53010502       1.27455687       1.04320940       0.77548976       0.47609043       0.21982456       0.03222061       0.00070131       0.01035849       0.02043397       0.00586045       0.01593593       0.00801949       0.01578543       0.00453903       0.01230497       0.00515874       0.01011660       0.00292191       0.00787977       0.00278207       0.00542775       0.00157729       0.00422297       0.00065682       0.00317015       0.00000424       0.00097748       0.00115183       0.00223097       0.00065390       0.00173305       0.00027222       0.00129961       0.00000175       0.00040084       0.00019763       0.00037743       0.00011248       0.00029229       0.00004680       0.00021873       0.00000030       0.00006750       0.00000906       0.00001691       0.00000518       0.00001303       0.00000215       0.00000971       0.00000300
Si       2.73055000       2.77429000       0.06036780      -0.06201350      -0.59410600      -0.02485580       1.43018409       1.17855350       0.95309392       0.69582161       0.41457755       0.18254545       0.02377278       0.00040690       0.00381902       0.01618956       0.00154691       0.01391745       0.00293181       0.01247451       0.00118441       0.01072710       0.00185888       0.00795981       0.00074751       0.00684844       0.00098257       0.00424503       0.00039255       0.00365501       0.00014269       0.00288711       0.00000072       0.00082335       0.00039545       0.00173036       0.00015649       0.00149140       0.00005664       0.00117870       0.00000028       0.00033601       0.00006420       0.00028814       0.00002491       0.00024886       0.00000894       0.00019689       0.00000004       0.00005609       0.00000268       0.00001259       0.00000100       0.00001091       0.00000035       0.00000865       0.00000246
Si      -0.09275380       2.78812000       2.68701000      -0.53826300      -0.58004200       0.09859970       1.50997188       1.25963787       1.03211531       0.76789848       0.47153377       0.21753202       0.03181782       0.00069498       0.01074920       0.01628777       0.00624305       0.01178162       0.00833929       0.01256215       0.00484760       0.00907046       0.00538414       0.00802894       0.00313442       0.00577922       0.00291906       0.00429183       0.00170283       0.00307560       0.00069510       0.00212792       0.00000384       0.00057180       0.00121818       0.00175532       0.00071265       0.00124979       0.00029081       0.00085988       0.00000160       0.00023046       0.00021263       0.00029434       0.00012508       0.00020678       0.00005101       0.00014061       0.00000028       0.00003749       0.00001009       0.00001304       0.00000599       0.00000893       0.00000244       0.00000594       0.00000157
Si       2.55128000      10.97030000       2.79642000       0.53757100      -1.56186000      -0.24860700       1.47961211       1.22711744       0.99944206       0.73745079       0.44720488       0.20258228       0.02840713       0.00057303       0.00613876       0.01661578       0.00310423       0.01358125       0.00471584       0.01278571       0.00238298       0.01045285       0.00299324       0.00813875       0.00151065       0.00665616       0.00158425       0.00432503       0.00079815       0.00353893       0.00031866       0.00270396       0.00000231       0.00075769       0.00063858       0.00175336       0.00032091       0.00143569       0.00012792       0.00109734       0.00000092       0.00030743       0.00010386       0.00028844       0.00005193       0.00023651       0.00002063       0.00018089       0.00000015       0.00005066       0.00000434       0.00001229       0.00000215       0.00001010       0.00000085       0.00000774       0.00000216
Si       1.25941000       1.41665000       1.41600000       0.35379900       0.39158200      -1.29635000       1.48808631       1.23477822       1.00619451       0.74295029       0.45102633       0.20465068       0.02879966       0.00058310       0.00631226       0.01793588       0.00325600       0.01487962       0.00485851       0.01387278       0.00250157       0.01151584       0.00309439       0.00891099       0.00158816       0.00740476       0.00164600       0.00479749       0.00084090       0.00399239       0.00035466       0.00311702       0.00000276       0.00091764       0.00066850       0.00198284       0.00033919       0.00165352       0.00014284       0.00129226       0.00000111       0.00037982       0.00011054       0.00033986       0.00005527       0.00028460       0.00002320       0.00022286       0.00000018       0.00006530       0.00000478       0.00001568       0.00000232       0.00001322       0.00000097       0.00001039       0.00000303
Si       4.07132000       4.19696000       1.42414000       0.62759400      -1.17781000      -2.01846000       1.51292874       1.25943089       1.02992187       0.76450982       0.46828050       0.21566810       0.03164975       0.00071408       0.00946189       0.01978462       0.00513130       0.01545404       0.00732032       0.01533365       0.00396792       0.01198124       0.00470362       0.00988339       0.00254729       0.00772706       0.00253282       0.00534638       0.00136990       0.00418346       0.00054261       0.00310730       0.00000353       0.00089820       0.00104660       0.00222443       0.00056497       0.00174280       0.00022346       0.00129574       0.00000144       0.00037500       0.00017900       0.00038616       0.00009622       0.00030338       0.00003795       0.00022603       0.00000024       0.00006557       0.00000818       0.00001818       0.00000436       0.00001436       0.00000171       0.00001074       0.00000313
Si       1.32000000       4.03040000       3.94536000       0.22169000       1.29763000       1.53906000       1.46232656       1.20824856       0.98028421       0.71952248       0.43302831       0.19421240       0.02676037       0.00053418       0.00468244       0.01910932       0.00204384       0.01647072       0.00359904       0.01479425       0.00156395       0.01275916       0.00228698       0.00951832       0.00098604       0.00821737       0.00121289       0.00513614       0.00051708       0.00444034       0.00020928       0.00354117       0.00000180       0.00104858       0.00049071       0.00212972       0.00020575       0.00184476       0.00008290       0.00147245       0.00000072       0.00043535       0.00008064       0.00036739       0.00003264       0.00031939       0.00001302       0.00025533       0.00000011       0.00007526       0.00000346       0.00001713       0.00000131       0.00001498       0.00000051       0.00001200       0.00000352
Si       4.10937000       1.31933000       3.99275000      -1.11690000       0.32747600       1.61874000       1.46705203       1.21812312       0.99309331       0.73351648       0.44525068       0.20185593       0.02837122       0.00057907       0.00617780       0.01431642       0.00324738       0.01138601       0.00475356       0.01100160       0.00249929       0.00874733       0.00302577       0.00698705       0.00159148       0.00555276       0.00160797       0.00370129       0.00084621       0.00293953       0.00033541       0.00219416       0.00000222       0.00060493       0.00065199       0.00149389       0.00034339       0.00118528       0.00013600       0.00088398       0.00000090       0.00024351       0.00010735       0.00024367       0.00005663       0.00019295       0.00002240       0.00014365       0.00000015       0.00003950       0.00000459       0.00001024       0.00000243       0.00000808       0.00000096       0.00000600       0.00000164
Si       5.44565000      -0.08948650      10.97810000      -1.35549000      -1.11826000      -1.58989000       1.43188411       1.18162931       0.95731922       0.70117428       0.42064496       0.18801988       0.02601324       0.00055616       0.00551663       0.01748978       0.00262770       0.01460084       0.00425869       0.01352006       0.00202713       0.01128850       0.00272612       0.00867591       0.00129602       0.00724581       0.00146028       0.00466443       0.00069293       0.00389708       0.00027328       0.00301736       0.00000164       0.00083649       0.00059890       0.00192390       0.00028337       0.00160837       0.00011162       0.00124562       0.00000066       0.00034501       0.00010090       0.00032831       0.00004743       0.00027484       0.00001863       0.00021298       0.00000011       0.00005889       0.00000449       0.00001501       0.00000208       0.00001260       0.00000081       0.00000978       0.00000270
Si       8.12662000       2.64359000      11.01610000       1.51063000       0.57010700      -0.84553600       1.45211353       1.19974534       0.97324466       0.71412123       0.42948031       0.19240078       0.02645600       0.00052638       0.00789845       0.01900837       0.00408312       0.01519304       0.00608672       0.01466173       0.00314590       0.01172091       0.00388421       0.00937172       0.00200679       0.00749429       0.00207124       0.00500958       0.00106950       0.00400784       0.00041419       0.00300837       0.00000209       0.00083554       0.00084373       0.00204826       0.00043527       0.00163980       0.00016863       0.00123147       0.00000085       0.00034196       0.00014009       0.00034288       0.00007212       0.00027491       0.00002796       0.00020667       0.00000014       0.00005737       0.00000606       0.00001508       0.00000311       0.00001213       0.00000121       0.00000914       0.00000253
Si       5.35318000       2.64950000       2.61184000       1.57006000       1.05132000       1.11837000       1.44306333       1.19329309       0.96870565       0.71132017       0.42810320       0.19189914       0.02641439       0.00052528       0.00535986       0.01682059       0.00259002       0.01405075       0.00412273       0.01300048       0.00198837       0.01086612       0.00262269       0.00833911       0.00126067       0.00697709       0.00139269       0.00447988       0.00066624       0.00375343       0.00026258       0.00292867       0.00000169       0.00086252       0.00056415       0.00184499       0.00026800       0.00154884       0.00010551       0.00120989       0.00000068       0.00035607       0.00009274       0.00031348       0.00004342       0.00026416       0.00001705       0.00020680       0.00000011       0.00006078       0.00000396       0.00001417       0.00000180       0.00001201       0.00000071       0.00000944       0.00000277
Si       8.15455000      -0.15044200       2.58780000       0.79004400       2.29176000       1.05149000       1.52647874       1.26393019       1.02849492       0.75896834       0.46165584       0.21110756       0.03063477       0.00067400       0.00957730       0.02779295       0.00459275       0.02280840       0.00741773       0.02159601       0.00355164       0.01772992       0.00477543       0.01398055       0.00228039       0.01148551       0.00257867       0.00760730       0.00122678       0.00625541       0.00045256       0.00477480       0.00000259       0.00134720       0.00106992       0.00319035       0.00050630       0.00262672       0.00018609       0.00200628       0.00000105       0.00056551       0.00018455       0.00056179       0.00008641       0.00046365       0.00003153       0.00035455       0.00000017       0.00009974       0.00000857       0.00002698       0.00000394       0.00002235       0.00000142       0.00001712       0.00000480
Si       6.75569000       1.23545000       1.32130000       0.32518500       0.81042200       1.52959000       1.55707946       1.30079655       1.06816262       0.79799705       0.49410990       0.23145216       0.03531598       0.00084860       0.01333029       0.02166159       0.00773898       0.01607028       0.01035268       0.01674829       0.00601500       0.01241061       0.00669561       0.01074951       0.00389537       0.00794926       0.00363809       0.00577898       0.00212042       0.00426130       0.00088227       0.00304364       0.00000611       0.00085750       0.00152236       0.00238200       0.00088954       0.00174918       0.00037018       0.00124546       0.00000255       0.00035075       0.00026676       0.00040513       0.00015663       0.00029500       0.00006520       0.00020870       0.00000045       0.00005872       0.00001269       0.00001831       0.00000751       0.00001313       0.00000313       0.00000918       0.00000258
Si       9.57596000       4.27904000       1.33331000      -2.01071000      -1.23428000       0.42431900       1.43290806       1.17823287       0.95106133       0.69304721       0.41246097       0.18196072       0.02412794       0.00044687       0.00529693       0.02025148       0.00218170       0.01713625       0.00407798       0.01563281       0.00167691       0.01323174       0.00259827       0.01000592       0.00106544       0.00847309       0.00138276       0.00535868       0.00056478       0.00454070       0.00018907       0.00352890       0.00000085       0.00099261       0.00056188       0.00219687       0.00022821       0.00186319       0.00007613       0.00144893       0.00000034       0.00040774       0.00009294       0.00036970       0.00003733       0.00031409       0.00001237       0.00024455       0.00000005       0.00006888       0.00000401       0.00001641       0.00000158       0.00001398       0.00000052       0.00001091       0.00000308
Si       6.70667000       4.08295000       4.18891000      -0.09850140      -0.36613000      -2.93135000       1.43365840       1.18538550       0.96235173       0.70695574       0.42610261       0.19180512       0.02694358       0.00057932       0.00498238       0.01548237       0.00239755       0.01289755       0.00384198       0.01193085       0.00184911       0.00993797       0.00245464       0.00761410       0.00118172       0.00634119       0.00131130       0.00406135       0.00063152       0.00338157       0.00025329       0.00261100       0.00000208       0.00072835       0.00053571       0.00165572       0.00025811       0.00137813       0.00010357       0.00106359       0.00000085       0.00029608       0.00008954       0.00027569       0.00004318       0.00022932       0.00001734       0.00017682       0.00000014       0.00004901       0.00000393       0.00001203       0.00000190       0.00001000       0.00000076       0.00000770       0.00000212
Si       9.45267000       1.34718000       4.07680000      -1.07004000       0.43298500      -0.49803500       1.40572457       1.15284457       0.92774350       0.67282128       0.39700042       0.17251845       0.02190153       0.00036460       0.00323514       0.01822921       0.00106691       0.01606098       0.00248379       0.01405250       0.00081532       0.01238403       0.00157519       0.00897383       0.00051290       0.00791154       0.00083301       0.00479121       0.00026815       0.00422635       0.00009121       0.00340787       0.00000048       0.00102884       0.00033559       0.00195614       0.00010625       0.00172681       0.00003585       0.00139268       0.00000019       0.00041976       0.00005463       0.00032678       0.00001672       0.00028887       0.00000554       0.00023305       0.00000003       0.00007001       0.00000230       0.00001435       0.00000066       0.00001272       0.00000021       0.00001026       0.00000306
Si      10.94240000       5.43892000      -0.11138100       0.08040810       0.75690800      -0.39395600       1.46870310       1.21605786       0.98864382       0.72751603       0.43917060       0.19741941       0.02708629       0.00051812       0.00809584       0.01822559       0.00421918       0.01434892       0.00625591       0.01403450       0.00326303       0.01104162       0.00401121       0.00894521       0.00209520       0.00702920       0.00215344       0.00476274       0.00112702       0.00373632       0.00041947       0.00276999       0.00000165       0.00080903       0.00088587       0.00193658       0.00046488       0.00151560       0.00017294       0.00112166       0.00000067       0.00032794       0.00015009       0.00032075       0.00007917       0.00024983       0.00002943       0.00018425       0.00000011       0.00005398       0.00000674       0.00001387       0.00000358       0.00001071       0.00000133       0.00000785       0.00000231
Si       2.80475000       8.07568000      -0.07373260      -1.46277000       1.15490000       0.15865000       1.45333819       1.19919035       0.97140952       0.71124939       0.42615216       0.18960011       0.02546185       0.00046992       0.00689183       0.02033203       0.00326676       0.01670696       0.00531823       0.01572454       0.00251879       0.01292510       0.00340231       0.01009891       0.00160903       0.00830563       0.00182123       0.00543606       0.00085947       0.00447430       0.00030613       0.00342745       0.00000108       0.00100573       0.00074641       0.00224626       0.00035112       0.00185097       0.00012482       0.00141928       0.00000044       0.00041725       0.00012570       0.00038485       0.00005873       0.00031788       0.00002079       0.00024423       0.00000007       0.00007207       0.00000561       0.00001774       0.00000259       0.00001472       0.00000091       0.00001135       0.00000337
Si       0.02877370       8.10925000       2.70889000      -0.96625500       1.47584000       1.87136000       1.50689663       1.25408946       1.02544941       0.76127448       0.46661914       0.21535678       0.03194243       0.00075400       0.01043334       0.01974511       0.00574149       0.01505326       0.00813709       0.01528444       0.00448328       0.01163063       0.00530318       0.00983203       0.00292797       0.00745682       0.00291499       0.00530491       0.00161410       0.00400402       0.00062388       0.00289357       0.00000303       0.00085001       0.00124209       0.00220009       0.00069063       0.00164863       0.00026646       0.00118410       0.00000126       0.00034716       0.00022692       0.00038016       0.00012721       0.00028045       0.00004891       0.00019871       0.00000022       0.00005800       0.00001180       0.00001787       0.00000671       0.00001278       0.00000257       0.00000880       0.00000255
Si       2.67570000       5.45185000       2.61559000      -1.30969000       1.54347000       0.87560400       1.46606911       1.21630623       0.99097291       0.73157864       0.44414948       0.20183935       0.02881283       0.00063112       0.00707267       0.01608516       0.00382109       0.01283358       0.00547870       0.01240012       0.00296332       0.00988474       0.00352806       0.00791906       0.00191199       0.00630298       0.00190587       0.00422838       0.00103564       0.00335815       0.00042095       0.00253776       0.00000243       0.00075097       0.00079127       0.00172658       0.00043160       0.00136691       0.00017544       0.00103061       0.00000101       0.00030455       0.00013669       0.00028855       0.00007510       0.00022696       0.00003053       0.00017031       0.00000017       0.00005018       0.00000637       0.00001269       0.00000354       0.00000987       0.00000144       0.00000734       0.00000215
Si       1.24544000       6.95785000       1.28337000       2.35144000      -2.62636000      -0.77051400       1.53254731       1.26737642       1.03013041       0.75923852       0.46138765       0.21117593       0.03102777       0.00072905       0.00887205       0.02805984       0.00403927       0.02322705       0.00684580       0.02180628       0.00310559       0.01806607       0.00437926       0.01412297       0.00197409       0.01171781       0.00234426       0.00769317       0.00104708       0.00639599       0.00039305       0.00485450       0.00000276       0.00118791       0.00096110       0.00323444       0.00042341       0.00269675       0.00015827       0.00205013       0.00000111       0.00050065       0.00016217       0.00057435       0.00006935       0.00048152       0.00002567       0.00036719       0.00000018       0.00008930       0.00000730       0.00002830       0.00000294       0.00002394       0.00000107       0.00001835       0.00000443
Si       3.93019000       9.43160000       1.50463000       0.87875400       1.11271000      -0.49678100       1.40151713       1.15301040       0.93046844       0.67693319       0.40082613       0.17473251       0.02223543       0.00036650       0.00463491       0.01537716       0.00198927       0.01273152       0.00356332       0.01185593       0.00152676       0.00981936       0.00226477       0.00757292       0.00096751       0.00627567       0.00120100       0.00404420       0.00051092       0.00335412       0.00016827       0.00253879       0.00000042       0.00064472       0.00048547       0.00165143       0.00020526       0.00137122       0.00006740       0.00103850       0.00000017       0.00026317       0.00007943       0.00027582       0.00003316       0.00022955       0.00001082       0.00017406       0.00000003       0.00004393       0.00000336       0.00001209       0.00000137       0.00001011       0.00000044       0.00000768       0.00000193
Si       1.23730000       9.57965000       4.20128000       0.29128100      -0.05515850      -0.87373900       1.49158684       1.22584164       0.98939553       0.72139624       0.43024402       0.19062271       0.02541609       0.00045817       0.00657482       0.02859360       0.00261670       0.02463548       0.00507390       0.02224392       0.00200775       0.01917777       0.00324682       0.01443163       0.00127183       0.01245663       0.00173915       0.00788011       0.00067140       0.00681236       0.00024376       0.00538932       0.00000125       0.00151717       0.00071391       0.00332389       0.00026972       0.00287970       0.00009717       0.00228081       0.00000050       0.00064152       0.00012089       0.00059370       0.00004363       0.00051644       0.00001545       0.00040992       0.00000008       0.00011510       0.00000549       0.00002946       0.00000181       0.00002579       0.00000062       0.00002054       0.00000575
Si       4.05006000       6.78348000       4.03126000      -0.06230020       0.76593600      -0.31019500       1.47781588       1.22196863       0.99199179       0.72847933       0.43847788       0.19642816       0.02678820       0.00050615       0.00625285       0.02070468       0.00292424       0.01737607       0.00482301       0.01608761       0.00224783       0.01351243       0.00308306       0.01041493       0.00142829       0.00876016       0.00164843       0.00566861       0.00075710       0.00477728       0.00029229       0.00372787       0.00000168       0.00106348       0.00067446       0.00237930       0.00030583       0.00201067       0.00011760       0.00157152       0.00000067       0.00044819       0.00011321       0.00042039       0.00004996       0.00035713       0.00001905       0.00027999       0.00000011       0.00007981       0.00000503       0.00002042       0.00000210       0.00001749       0.00000079       0.00001378       0.00000393
Si       5.39114000       5.43801000      -0.13474700       1.96933000      -1.16233000       2.97561000       1.53425862       1.27243370       1.03736294       0.76785724       0.46986067       0.21754390       0.03314727       0.00087003       0.00971971       0.02826779       0.00477797       0.02332605       0.00754993       0.02208288       0.00370112       0.01823407       0.00488653       0.01443516       0.00238375       0.01193238       0.00266025       0.00797005       0.00128848       0.00659828       0.00052274       0.00504624       0.00000464       0.00133522       0.00111824       0.00341958       0.00053581       0.00283715       0.00021662       0.00217082       0.00000192       0.00057031       0.00019894       0.00063450       0.00009311       0.00052868       0.00003735       0.00040485       0.00000033       0.00010483       0.00000990       0.00003407       0.00000442       0.00002859       0.00000174       0.00002192       0.00000554
Si       8.37170000       8.11398000      10.88250000      -1.23941000       1.03147000       0.63921200       1.58512533       1.31962474       1.08031472       0.80437689       0.49638597       0.23194973       0.03531659       0.00084560       0.01433351       0.03001500       0.00784537       0.02352686       0.01114792       0.02331371       0.00610256       0.01826836       0.00722825       0.01508220       0.00395778       0.01181173       0.00394185       0.00819850       0.00215903       0.00641568       0.00087444       0.00477710       0.00000607       0.00137863       0.00165837       0.00343311       0.00090876       0.00268349       0.00036757       0.00199619       0.00000253       0.00057586       0.00029391       0.00060261       0.00016123       0.00046993       0.00006504       0.00034887       0.00000044       0.00010056       0.00001428       0.00002877       0.00000785       0.00002234       0.00000315       0.00001652       0.00000476
Si       5.50536000       8.24432000       2.81818000       0.10323000      -0.88326300      -0.74978900       1.42854843       1.16802827       0.93730271       0.67746074       0.39817219       0.17236751       0.02173324       0.00035367       0.00537717       0.02447149       0.00191925       0.02101357       0.00415654       0.01893882       0.00148229       0.01626457       0.00266690       0.01217571       0.00094965       0.01045846       0.00143327       0.00656131       0.00050931       0.00563735       0.00015577       0.00440274       0.00000034       0.00118623       0.00059061       0.00271387       0.00020926       0.00233252       0.00006387       0.00182225       0.00000014       0.00049128       0.00010045       0.00046487       0.00003539       0.00039981       0.00001076       0.00031252       0.00000002       0.00008436       0.00000454       0.00002128       0.00000158       0.00001832       0.00000048       0.00001433       0.00000388
Si       7.97972000       5.57318000       2.68999000       2.15040000      -2.38533000       1.49389000       1.44141100       1.19137957       0.96690379       0.71004980       0.42787280       0.19271129       0.02726197       0.00061639       0.00622396       0.01746492       0.00294159       0.01418256       0.00479493       0.01348593       0.00226398       0.01095498       0.00305865       0.00863730       0.00144168       0.00702033       0.00163044       0.00463088       0.00076658       0.00376702       0.00027658       0.00282007       0.00000136       0.00072601       0.00066410       0.00190237       0.00031108       0.00154934       0.00011211       0.00116068       0.00000055       0.00029839       0.00011039       0.00032193       0.00005130       0.00026284       0.00001845       0.00019719       0.00000009       0.00005055       0.00000480       0.00001449       0.00000220       0.00001189       0.00000079       0.00000894       0.00000228
Si       6.86116000       6.83363000       1.27305000      -2.27676000       1.21675000      -0.52017600       1.44621623       1.19779730       0.97414520       0.71742645       0.43421382       0.19685434       0.02828962       0.00065501       0.00808537       0.01734580       0.00430414       0.01356458       0.00627607       0.01342207       0.00334316       0.01048917       0.00405563       0.00862750       0.00216272       0.00673460       0.00220125       0.00464904       0.00117556       0.00362335       0.00046092       0.00265812       0.00000255       0.00071680       0.00091985       0.00192363       0.00049221       0.00149598       0.00019302       0.00109520       0.00000107       0.00029400       0.00016084       0.00033024       0.00008637       0.00025577       0.00003388       0.00018651       0.00000019       0.00004961       0.00000763       0.00001524       0.00000412       0.00001173       0.00000162       0.00000850       0.00000223
Si       9.66115000       9.53298000       1.33235000      -0.51621700      -1.04955000       0.15819400       1.59258942       1.32365486       1.08181420       0.80368420       0.49428666       0.22976357       0.03442397       0.00078081       0.01407295       0.03244487       0.00754603       0.02591795       0.01093017       0.02524276       0.00585751       0.02017011       0.00707032       0.01637961       0.00378508       0.01309437       0.00384306       0.00894477       0.00205416       0.00715587       0.00083419       0.00541474       0.00000534       0.00155452       0.00160930       0.00377298       0.00085809       0.00302178       0.00034801       0.00228790       0.00000221       0.00065631       0.00028261       0.00067366       0.00014985       0.00054090       0.00006060       0.00041010       0.00000038       0.00011744       0.00001352       0.00003340       0.00000708       0.00002696       0.00000285       0.00002050       0.00000585