64
Lattice="10.862 0.0 0.0 0.0 10.862 0.0 0.0 0.0 10.862" Properties=species:S:1:pos:R:3:atomic_forces_forces:R:3:kliff_descriptor_symmetry_function_descriptors:R:51 energy_energy=-263.87003 energy_per_atom=F kliff_descriptor_symmetry_function_cut_name=cos kliff_descriptor_symmetry_function_cut_dists="{\"Si-Si\": 4.0}" kliff_descriptor_symmetry_function_hyperparams=set51 pbc="T T T"
Si      11.00860000      -0.18318200      10.95320000      -0.46121200       1.64634000      -0.65899600       1.46740140       1.21686776       0.99069758       0.73024459       0.44172395       0.19904614       0.02743692       0.00052827       0.00853987       0.01664542       0.00445104       0.01255659       0.00659574       0.01280781       0.00343995       0.00965202       0.00422552       0.00815204       0.00220622       0.00613273       0.00226586       0.00433151       0.00118488       0.00325053       0.00042138       0.00227505       0.00000146       0.00058249       0.00093062       0.00175568       0.00048773       0.00131279       0.00017319       0.00091563       0.00000059       0.00023404       0.00015720       0.00028874       0.00008275       0.00021429       0.00002930       0.00014838       0.00000010       0.00003780       0.00000703       0.00001230       0.00000373       0.00000901       0.00000131       0.00000615       0.00000156
Si       2.75251000       2.69713000      -0.04369190      -0.80566600       0.96474700       0.54829500       1.46110280       1.20603696       0.97749050       0.71643239       0.43013115       0.19208612       0.02608462       0.00049697       0.00540598       0.01924482       0.00248935       0.01632820       0.00415588       0.01484942       0.00191031       0.01260385       0.00264119       0.00949775       0.00121031       0.00806687       0.00140055       0.00508172       0.00063897       0.00432014       0.00025292       0.00340403       0.00000164       0.00099358       0.00056615       0.00208071       0.00025663       0.00177119       0.00010141       0.00139671       0.00000066       0.00040779       0.00009266       0.00034939       0.00004144       0.00029818       0.00001632       0.00023550       0.00000011       0.00006879       0.00000392       0.00001546       0.00000171       0.00001325       0.00000067       0.00001049       0.00000307
Si      -0.03540900       2.90940000       2.55964000       0.23251200      -1.52498000       0.91817800       1.48466309       1.23020469       1.00106320       0.73780273       0.44675839       0.20204771       0.02825485       0.00056780       0.00618387       0.01949425       0.00300301       0.01631338       0.00475306       0.01508915       0.00230153       0.01263762       0.00301981       0.00970354       0.00145488       0.00813861       0.00160067       0.00523153       0.00076559       0.00439645       0.00030411       0.00344289       0.00000209       0.00101431       0.00064670       0.00216562       0.00030601       0.00182494       0.00012122       0.00143144       0.00000083       0.00042163       0.00010575       0.00037180       0.00004892       0.00031497       0.00001926       0.00024781       0.00000013       0.00007296       0.00000447       0.00001712       0.00000198       0.00001463       0.00000077       0.00001157       0.00000340
Si       2.75523000      10.90980000       2.80034000      -1.92790000       0.54913100      -0.83952600       1.56327260       1.30865705       1.07699590       0.80719376       0.50245203       0.23740199       0.03710077       0.00094075       0.01470183       0.02096542       0.00878946       0.01505305       0.01146553       0.01622584       0.00686176       0.01162207       0.00746996       0.01043316       0.00447842       0.00744162       0.00410205       0.00562492       0.00246521       0.00398808       0.00104882       0.00276982       0.00000786       0.00076774       0.00174377       0.00232942       0.00105145       0.00163710       0.00044717       0.00112874       0.00000333       0.00031209       0.00031601       0.00040084       0.00019175       0.00027658       0.00008149       0.00018773       0.00000060       0.00005163       0.00001604       0.00001863       0.00000983       0.00001242       0.00000417       0.00000817       0.00000222
Si       1.35504000       1.40639000       1.34641000       0.51162000      -0.42547300       0.44264700       1.44512929       1.19163059       0.96456829       0.70539631       0.42166946       0.18674821       0.02469883       0.00043705       0.00447625       0.01695380       0.00193753       0.01441508       0.00343068       0.01302826       0.00148231       0.01107989       0.00216883       0.00827411       0.00093417       0.00703945       0.00114153       0.00438303       0.00048951       0.00373101       0.00018326       0.00292197       0.00000101       0.00083069       0.00045650       0.00176899       0.00019449       0.00150698       0.00007261       0.00118040       0.00000040       0.00033487       0.00007309       0.00028851       0.00003072       0.00024614       0.00001140       0.00019286       0.00000006       0.00005448       0.00000297       0.00001212       0.00000122       0.00001037       0.00000045       0.00000813       0.00000228
Si       4.11021000       3.99425000       1.45168000       0.35885700       0.93493600      -1.46988000       1.45708682       1.19686296       0.96513515       0.70248317       0.41760191       0.18417239       0.02446777       0.00045187       0.00501442       0.02562223       0.00170053       0.02230834       0.00388505       0.02000853       0.00130508       0.01742857       0.00250400       0.01307034       0.00082725       0.01139360       0.00135588       0.00720943       0.00043734       0.00629089       0.00015294       0.00496069       0.00000114       0.00130082       0.00056618       0.00308878       0.00017627       0.00269887       0.00006053       0.00212807       0.00000045       0.00055433       0.00009978       0.00057144       0.00002883       0.00050050       0.00000949       0.00039453       0.00000007       0.00010142       0.00000495       0.00003053       0.00000124       0.00002683       0.00000037       0.00002113       0.00000531
Si       1.32444000       4.16837000       3.97543000      -0.08346560      -0.52113100      -0.65179000       1.56972389       1.30897999       1.07307255       0.80001190       0.49399564       0.23048467       0.03472056       0.00079722       0.01407041       0.02519074       0.00788917       0.01900950       0.01095481       0.01951427       0.00614693       0.01470639       0.00711661       0.01256726       0.00399842       0.00944907       0.00389212       0.00678952       0.00219068       0.00508808       0.00087473       0.00364990       0.00000496       0.00102246       0.00164483       0.00281927       0.00092813       0.00210258       0.00037002       0.00150214       0.00000206       0.00042024       0.00029455       0.00048725       0.00016703       0.00035973       0.00006639       0.00025479       0.00000036       0.00007108       0.00001464       0.00002274       0.00000837       0.00001647       0.00000331       0.00001147       0.00000318
Si       3.88953000       1.35734000       4.19899000       2.13608000       0.45369600       0.85960800       1.49916529       1.23962668       1.00717852       0.74149536       0.44920628       0.20408095       0.02922096       0.00064112       0.00879022       0.02448757       0.00443927       0.02013662       0.00678254       0.01895114       0.00342236       0.01559096       0.00433828       0.01218535       0.00218561       0.01003269       0.00232148       0.00656997       0.00116685       0.00541534       0.00046540       0.00418245       0.00000307       0.00123050       0.00095088       0.00272136       0.00047626       0.00224673       0.00018991       0.00173726       0.00000125       0.00051147       0.00015991       0.00046865       0.00007946       0.00038820       0.00003166       0.00030087       0.00000021       0.00008869       0.00000711       0.00002183       0.00000348       0.00001819       0.00000138       0.00001416       0.00000418
Si       5.38381000       0.06838430      10.93820000       0.20608000      -0.50455700       1.14906000       1.47100056       1.21655430       0.98806629       0.72634402       0.43810733       0.19698731       0.02717899       0.00053479       0.00651500       0.01872770       0.00327420       0.01548690       0.00502504       0.01442812       0.00252645       0.01192953       0.00321185       0.00920355       0.00161598       0.00760768       0.00171684       0.00490562       0.00086465       0.00405344       0.00034423       0.00314515       0.00000191       0.00094416       0.00070200       0.00199757       0.00035405       0.00164962       0.00014092       0.00127962       0.00000078       0.00038436       0.00011756       0.00033168       0.00005946       0.00027358       0.00002366       0.00021209       0.00000013       0.00006377       0.00000518       0.00001439       0.00000263       0.00001184       0.00000105       0.00000917       0.00000276
Si       8.17948000       2.66672000      10.84190000      -0.53015300       1.01664000      -0.43025500       1.51279873       1.25572159       1.02396819       0.75717971       0.46108899       0.21038457       0.03000352       0.00061944       0.00951587       0.02124457       0.00504559       0.01677429       0.00735865       0.01641808       0.00390238       0.01296181       0.00472426       0.01052966       0.00250595       0.00831135       0.00254070       0.00565560       0.00134809       0.00446299       0.00052883       0.00332142       0.00000264       0.00092317       0.00104775       0.00232870       0.00055612       0.00183707       0.00021811       0.00136689       0.00000109       0.00038003       0.00017836       0.00039557       0.00009471       0.00031192       0.00003713       0.00023202       0.00000018       0.00006454       0.00000807       0.00001788       0.00000429       0.00001410       0.00000168       0.00001048       0.00000292
Si       5.37067000       2.68529000       2.89864000      -0.80945300       0.85797900       0.29313500       1.55276746       1.29223128       1.05700856       0.78552107       0.48264273       0.22360153       0.03321450       0.00075080       0.01582368       0.02740513       0.00852736       0.02010881       0.01240647       0.02131529       0.00669318       0.01560201       0.00815905       0.01382586       0.00440990       0.01007671       0.00454116       0.00754847       0.00246064       0.00546795       0.00088832       0.00372379       0.00000312       0.00097337       0.00196924       0.00318503       0.00107071       0.00228650       0.00038524       0.00154287       0.00000132       0.00040219       0.00037221       0.00057039       0.00020367       0.00040185       0.00007280       0.00026581       0.00000024       0.00006886       0.00002048       0.00002865       0.00001131       0.00001948       0.00000400       0.00001239       0.00000317
Si       7.99640000       0.06049160       2.78319000       0.39305900       1.44601000      -1.33774000       1.40347600       1.15669462       0.93529157       0.68247506       0.40618787       0.17867147       0.02339302       0.00041898       0.00416363       0.01388152       0.00189120       0.01160910       0.00320132       0.01069610       0.00145265       0.00894743       0.00203518       0.00682550       0.00092185       0.00571216       0.00107976       0.00364094       0.00048780       0.00304898       0.00018197       0.00235246       0.00000083       0.00063446       0.00043686       0.00148501       0.00019657       0.00124472       0.00007327       0.00096088       0.00000034       0.00025895       0.00007166       0.00024781       0.00003196       0.00020811       0.00001189       0.00016083       0.00000005       0.00004327       0.00000305       0.00001090       0.00000134       0.00000919       0.00000049       0.00000711       0.00000191
Si       6.65027000       1.64549000       1.37730000       1.02608000      -3.33839000       0.09344360       1.50235918       1.23940619       1.00437670       0.73665785       0.44385812       0.20037833       0.02845563       0.00061826       0.00842635       0.02915217       0.00356255       0.02428837       0.00651943       0.02279403       0.00273810       0.01901270       0.00419093       0.01492051       0.00173967       0.01246925       0.00226006       0.00825119       0.00092240       0.00691353       0.00032098       0.00524096       0.00000151       0.00124323       0.00093744       0.00354607       0.00037303       0.00298166       0.00012849       0.00226414       0.00000060       0.00053426       0.00016255       0.00065880       0.00006126       0.00055750       0.00002061       0.00042457       0.00000010       0.00009913       0.00000777       0.00003525       0.00000263       0.00003011       0.00000084       0.00002302       0.00000527
Si       9.39034000       4.13680000       1.27785000      -0.08874610       0.79772700      -0.16028700       1.52838846       1.27317771       1.04205130       0.77451693       0.47529706       0.21926083       0.03204319       0.00069168       0.00967707       0.01923903       0.00547546       0.01503742       0.00747671       0.01484539       0.00423154       0.01160022       0.00479277       0.00949568       0.00271368       0.00741658       0.00257211       0.00508103       0.00145715       0.00396608       0.00061622       0.00297287       0.00000425       0.00086999       0.00105754       0.00208074       0.00059957       0.00162277       0.00025352       0.00121565       0.00000174       0.00035566       0.00017898       0.00034955       0.00010161       0.00027218       0.00004295       0.00020366       0.00000029       0.00005955       0.00000802       0.00001549       0.00000456       0.00001203       0.00000193       0.00000899       0.00000263
Si       6.78850000       4.08667000       4.09481000       0.71165000      -0.99849900       0.35343800       1.49402540       1.23671334       1.00562621       0.74078324       0.44862989       0.20322992       0.02862982       0.00058787       0.00843324       0.02208992       0.00428918       0.01794586       0.00653434       0.01709182       0.00332414       0.01388161       0.00421018       0.01098520       0.00214263       0.00891764       0.00227661       0.00591880       0.00115925       0.00480145       0.00045172       0.00365216       0.00000239       0.00103418       0.00094693       0.00244868       0.00048259       0.00198434       0.00018770       0.00150806       0.00000098       0.00042683       0.00016443       0.00042030       0.00008396       0.00033984       0.00003254       0.00025779       0.00000016       0.00007289       0.00000776       0.00001940       0.00000398       0.00001562       0.00000153       0.00001181       0.00000333
Si       9.54605000       1.45297000       4.01673000      -0.49888600      -0.26358200      -0.09413190       1.40206858       1.15604704       0.93505186       0.68234064       0.40572493       0.17776614       0.02280687       0.00037855       0.00397291       0.01248169       0.00184850       0.01035728       0.00304518       0.00956785       0.00141673       0.00793941       0.00192533       0.00605033       0.00089560       0.00502061       0.00101344       0.00318563       0.00047130       0.00264349       0.00017290       0.00203152       0.00000066       0.00056285       0.00040526       0.00127450       0.00018839       0.00105763       0.00006909       0.00081276       0.00000026       0.00022509       0.00006484       0.00020419       0.00003012       0.00016946       0.00001103       0.00013022       0.00000004       0.00003603       0.00000263       0.00000831       0.00000122       0.00000690       0.00000045       0.00000530       0.00000146
Si      10.63340000       5.54645000      -0.12831600       1.54833000      -0.39287700      -0.21286200       1.45597115       1.19759047       0.96695941       0.70484476       0.41958526       0.18504653       0.02438596       0.00043392       0.00460411       0.02215610       0.00162136       0.01917335       0.00354686       0.01721215       0.00123806       0.01490335       0.00226320       0.01114127       0.00077785       0.00965591       0.00120792       0.00606485       0.00040604       0.00526296       0.00013929       0.00412871       0.00000081       0.00107279       0.00049371       0.00254799       0.00016062       0.00221490       0.00005421       0.00173822       0.00000031       0.00044933       0.00008315       0.00045217       0.00002525       0.00039428       0.00000821       0.00030961       0.00000005       0.00007922       0.00000378       0.00002230       0.00000101       0.00001954       0.00000030       0.00001535       0.00000386
Si       2.92452000       8.13570000       0.06217200      -1.72067000       0.57987500      -0.26968100       1.49518651       1.23249775       0.99796673       0.73097538       0.43903697       0.19653986       0.02687183       0.00051336       0.00702499       0.02471151       0.00305233       0.02073885       0.00540845       0.01911014       0.00234438       0.01604607       0.00344610       0.01227038       0.00148759       0.01031187       0.00183410       0.00660126       0.00078707       0.00555423       0.00028160       0.00428436       0.00000140       0.00115887       0.00074539       0.00272436       0.00031712       0.00229609       0.00011296       0.00177334       0.00000056       0.00048045       0.00012335       0.00046489       0.00005155       0.00039309       0.00001819       0.00030433       0.00000009       0.00008271       0.00000533       0.00002118       0.00000215       0.00001800       0.00000075       0.00001400       0.00000382
Si       0.01471430       8.12860000       2.74983000      -1.21906000       1.04250000       0.17471400       1.36232696       1.11973315       0.90254627       0.65529497       0.38655550       0.16747256       0.02107216       0.00034907       0.00187361       0.01040674       0.00060852       0.00914165       0.00142925       0.00795865       0.00046284       0.00699224       0.00089626       0.00501247       0.00028876       0.00440497       0.00046641       0.00262429       0.00014919       0.00230708       0.00005153       0.00184559       0.00000033       0.00052675       0.00018352       0.00104148       0.00005809       0.00091606       0.00001997       0.00073296       0.00000013       0.00020905       0.00002844       0.00016419       0.00000881       0.00014456       0.00000300       0.00011571       0.00000002       0.00003295       0.00000109       0.00000650       0.00000033       0.00000573       0.00000011       0.00000459       0.00000130
Si       2.71915000       5.44838000       2.63142000      -1.08254000       0.50442200      -0.90448200       1.48193686       1.22538281       0.99538730       0.73229884       0.44276303       0.20022257       0.02817081       0.00058052       0.00833487       0.02216887       0.00433909       0.01817309       0.00644949       0.01713843       0.00335926       0.01404820       0.00414545       0.01099980       0.00216093       0.00901528       0.00223344       0.00591590       0.00116543       0.00484788       0.00047000       0.00376260       0.00000265       0.00117701       0.00092368       0.00244183       0.00048258       0.00200073       0.00019466       0.00155338       0.00000109       0.00048760       0.00015829       0.00041764       0.00008285       0.00034220       0.00003342       0.00026592       0.00000019       0.00008404       0.00000726       0.00001923       0.00000381       0.00001577       0.00000154       0.00001228       0.00000393
Si       1.24512000       6.89692000       1.21161000       1.09620000      -1.27307000       0.53891000       1.38392104       1.14269066       0.92535998       0.67616883       0.40271047       0.17690004       0.02295943       0.00040019       0.00366806       0.00992401       0.00174574       0.00800168       0.00280417       0.00759518       0.00133369       0.00612470       0.00176495       0.00478989       0.00083844       0.00386338       0.00092316       0.00251260       0.00043780       0.00202724       0.00015366       0.00150932       0.00000058       0.00039588       0.00036583       0.00100005       0.00017305       0.00080727       0.00006064       0.00060101       0.00000023       0.00015717       0.00005749       0.00015867       0.00002705       0.00012822       0.00000945       0.00009546       0.00000003       0.00002481       0.00000226       0.00000636       0.00000105       0.00000515       0.00000037       0.00000384       0.00000099
Si       4.04158000       9.56108000       1.55545000       1.76795000      -0.91835100      -1.28365000       1.50176753       1.24268647       1.01014635       0.74385854       0.45045417       0.20427235       0.02899654       0.00061599       0.00832208       0.02477839       0.00397874       0.02043505       0.00643422       0.01925084       0.00306970       0.01588632       0.00412962       0.01246079       0.00196291       0.01029409       0.00222033       0.00678090       0.00104975       0.00561032       0.00038639       0.00431669       0.00000206       0.00125759       0.00091554       0.00284559       0.00042943       0.00235949       0.00015753       0.00181768       0.00000083       0.00052871       0.00015597       0.00050263       0.00007193       0.00041859       0.00002620       0.00032327       0.00000014       0.00009374       0.00000709       0.00002440       0.00000316       0.00002048       0.00000114       0.00001588       0.00000458
Si       1.45612000       9.52993000       4.08831000      -0.88257900      -0.80105200       0.06171860       1.47753908       1.22142282       0.99141295       0.72805829       0.43838338       0.19660366       0.02694071       0.00051856       0.00620801       0.02160520       0.00288737       0.01828457       0.00478852       0.01680007       0.00221874       0.01423029       0.00306150       0.01089201       0.00140908       0.00923959       0.00163770       0.00594209       0.00074651       0.00505089       0.00029366       0.00398107       0.00000181       0.00116959       0.00067086       0.00250374       0.00030141       0.00213429       0.00011810       0.00168508       0.00000073       0.00049515       0.00011306       0.00044656       0.00004924       0.00038275       0.00001912       0.00030316       0.00000012       0.00008911       0.00000508       0.00002215       0.00000208       0.00001915       0.00000079       0.00001525       0.00000448
Si       4.10490000       6.68607000       3.97026000      -0.77241500      -1.22642000       1.81441000       1.60973068       1.34706361       1.10889736       0.83225587       0.52014353       0.24791315       0.03977119       0.00107903       0.01787839       0.02892797       0.01060649       0.02165607       0.01396340       0.02248294       0.00829052       0.01681005       0.00912036       0.01456111       0.00542244       0.01086319       0.00502592       0.00792907       0.00299375       0.00589691       0.00129231       0.00429527       0.00000985       0.00128449       0.00214708       0.00332972       0.00128232       0.00246496       0.00055361       0.00178951       0.00000421       0.00053472       0.00039289       0.00058849       0.00023586       0.00043147       0.00010185       0.00031103       0.00000077       0.00009277       0.00002028       0.00002855       0.00001228       0.00002055       0.00000530       0.00001461       0.00000434
Si       5.55331000       5.49933000       0.04094180       0.10747000      -2.30747000       0.65181300       1.45504098       1.19981135       0.97168392       0.71179720       0.42762178       0.19180764       0.02672434       0.00056314       0.00601732       0.02186423       0.00277199       0.01861890       0.00464742       0.01694059       0.00213792       0.01443109       0.00297754       0.01091354       0.00136634       0.00930234       0.00159703       0.00589896       0.00073024       0.00503217       0.00029435       0.00398180       0.00000211       0.00117949       0.00065629       0.00245111       0.00029851       0.00209334       0.00012024       0.00165762       0.00000086       0.00049127       0.00011104       0.00042406       0.00004996       0.00036297       0.00002009       0.00028783       0.00000015       0.00008538       0.00000498       0.00001979       0.00000220       0.00001701       0.00000088       0.00001352       0.00000401
Si       8.23813000       8.12656000      10.70160000      -1.15117000       1.68997000       1.29222000       1.47205801       1.21562093       0.98556544       0.72256788       0.43402123       0.19407598       0.02651182       0.00051401       0.00698246       0.02163081       0.00316435       0.01781270       0.00538430       0.01680205       0.00243037       0.01384811       0.00344055       0.01087315       0.00154210       0.00897470       0.00183897       0.00591645       0.00081589       0.00489337       0.00029230       0.00369537       0.00000140       0.00091448       0.00075240       0.00248387       0.00032876       0.00206024       0.00011706       0.00155769       0.00000056       0.00038313       0.00012650       0.00044002       0.00005348       0.00036700       0.00001878       0.00027810       0.00000009       0.00006757       0.00000567       0.00002163       0.00000224       0.00001820       0.00000077       0.00001384       0.00000329
Si       5.37023000       7.98130000       2.79049000       1.33484000       2.26581000      -2.26131000       1.58398436       1.31659953       1.07627908       0.80012630       0.49325877       0.23093195       0.03587071       0.00094354       0.01387262       0.03336205       0.00723087       0.02672030       0.01078582       0.02601885       0.00561603       0.02084905       0.00698955       0.01695231       0.00363260       0.01359536       0.00380878       0.00930934       0.00197417       0.00747472       0.00078800       0.00562273       0.00000698       0.00155353       0.00160072       0.00395706       0.00082635       0.00318269       0.00032916       0.00239669       0.00000290       0.00066204       0.00028312       0.00071670       0.00014491       0.00057849       0.00005747       0.00043657       0.00000050       0.00012054       0.00001371       0.00003631       0.00000690       0.00002949       0.00000272       0.00002235       0.00000617
Si       8.07152000       5.48892000       2.68478000       0.79276800      -0.78752300       0.76124700       1.51665554       1.25967921       1.02788498       0.76084532       0.46411296       0.21236991       0.03054276       0.00064664       0.00854658       0.02111705       0.00450955       0.01708002       0.00659912       0.01633340       0.00347952       0.01321380       0.00422581       0.01049093       0.00222537       0.00849049       0.00226474       0.00564679       0.00119049       0.00457254       0.00048527       0.00348942       0.00000317       0.00100452       0.00092950       0.00233236       0.00048730       0.00189016       0.00019839       0.00144263       0.00000129       0.00041411       0.00015683       0.00039881       0.00008176       0.00032374       0.00003320       0.00024716       0.00000021       0.00007054       0.00000700       0.00001826       0.00000361       0.00001487       0.00000146       0.00001136       0.00000321
Si       6.90315000       6.88493000       1.34555000      -0.96920500       0.06541040      -0.42556100       1.52167393       1.26418598       1.03190794       0.76425222       0.46667836       0.21393109       0.03091190       0.00066043       0.01217829       0.02313765       0.00669991       0.01765927       0.00944678       0.01789666       0.00520018       0.01365006       0.00609743       0.01149444       0.00335978       0.00875680       0.00330396       0.00618540       0.00182304       0.00470448       0.00071158       0.00341393       0.00000322       0.00097078       0.00137731       0.00255305       0.00076144       0.00193718       0.00029720       0.00140318       0.00000134       0.00039882       0.00023963       0.00043545       0.00013299       0.00032880       0.00005191       0.00023726       0.00000023       0.00006737       0.00001127       0.00001978       0.00000630       0.00001480       0.00000246       0.00001061       0.00000301
Si       9.39963000       9.62921000       1.37771000       0.62154400      -2.12751000       0.39257000       1.39738778       1.14960648       0.92789117       0.67545851       0.40063467       0.17540541       0.02274146       0.00040130       0.00491565       0.01538898       0.00216799       0.01264132       0.00378030       0.01184681       0.00166610       0.00973261       0.00240391       0.00754705       0.00105819       0.00620133       0.00127569       0.00401542       0.00056056       0.00330029       0.00018729       0.00247969       0.00000048       0.00062513       0.00051616       0.00163095       0.00022622       0.00134101       0.00007547       0.00100758       0.00000019       0.00025344       0.00008459       0.00026949       0.00003687       0.00022177       0.00001226       0.00016664       0.00000003       0.00004173       0.00000358       0.00001160       0.00000154       0.00000956       0.00000051       0.00000718       0.00000178