64
Lattice="10.862 0.0 0.0 0.0 10.862 0.0 0.0 0.0 10.862" Properties=species:S:1:pos:R:3:force:R:3:descriptors:R:10 PBC="1 1 1" Energy=-264.18824 fim_training_set_score="_JSON [[0.4055359956683657, 7.99455802634354], [7.99455802634354, 198.19517685173292]]" pbc="T T T"
Si      11.07690000      -0.23627300      10.97520000      -0.08875280      -0.14661500      -0.71459200       0.48944652       0.87293584       0.72677593       0.37429028       0.51647947       0.94511256       0.02102609       0.15391381       0.39385218       0.66824013
Si       2.63813000       2.76067000      -0.01216010       1.84393000      -0.92568600       0.00649916       0.04888502       0.81256964       0.75079121       0.16749010       0.12487893       0.13254626       0.46698939       0.50030646       0.82365120       0.34999409
Si      -0.09799430       2.79426000       2.61849000       0.01877040       0.14322700      -1.34912000       0.32160378       0.75708547       0.59300247       0.72304133       0.83719699       0.23200080       0.50404999       0.42300455       0.49123231       0.38760422
Si       2.65653000      10.92750000       2.62646000       0.43980600       0.00080267       2.12582000       0.16434217       0.30940918       0.04824657       0.80570332       0.69623539       0.62576819       0.81436514       0.31329450       0.29585546       0.95720114
Si       1.33535000       1.34158000       1.27880000      -0.47717000       1.32840000       0.95661100       0.75258369       0.33972681       0.88400685       0.27937765       0.85312087       0.81728439       0.77176988       0.22192524       0.28293381       0.20155412
Si       4.12469000       4.13377000       1.32433000      -1.86523000      -0.80523300       0.77255000       0.31782736       0.97152878       0.69161094       0.18725892       0.13817546       0.94222727       0.66929597       0.00236418       0.04330209       0.03189529
Si       1.29302000       4.05539000       3.98890000      -0.06285700       1.33265000       0.17277300       0.04943456       0.08277523       0.17764693       0.95227659       0.79640169       0.55146819       0.46834233       0.47192604       0.64481217       0.87061979
Si       4.08284000       1.38825000       4.12412000      -0.49955500       0.19168600      -1.49549000       0.80449954       0.64934591       0.34538751       0.37639559       0.91496906       0.68549584       0.07381725       0.07043077       0.58106847       0.19129423
Si       5.40450000      -0.19633900      10.97250000       0.42571400       1.33717000      -0.03602530       0.65390578       0.07355967       0.48620222       0.15500971       0.37833408       0.86717711       0.45126197       0.64581084       0.71337338       0.93888216
Si       8.15848000       2.63210000      10.88880000      -0.47226700      -0.30997100       0.39448800       0.73845954       0.28799588       0.36113641       0.19866168       0.09739489       0.74719419       0.22741516       0.30206253       0.08094152       0.10660318
Si       5.45879000       2.80457000       2.71353000      -0.32256600      -1.79773000      -0.31339000       0.92031435       0.08015956       0.70851684       0.75670605       0.36862025       0.79438536       0.01622196       0.78838666       0.11772429       0.24698025
Si       8.25058000       0.08223370       2.91139000      -1.43162000      -3.16339000      -1.53950000       0.76294586       0.27285851       0.70621611       0.18049769       0.69936949       0.69577413       0.80624262       0.13676836       0.48075903       0.29292263
Si       6.81407000       1.18082000       1.48010000      -0.55523700       1.83943000      -0.71939400       0.42776926       0.41646121       0.83205377       0.64857217       0.41901155       0.62914079       0.71863075       0.44170797       0.03425044       0.34163837
Si       9.34493000       4.28442000       1.18037000       1.90770000      -1.00706000       1.01608000       0.12996598       0.36049745       0.75336732       0.23232745       0.63698478       0.32702026       0.98747731       0.99208585       0.14661627       0.19089037
Si       6.81293000       4.10475000       4.00463000       0.23688500       0.13284600       1.66695000       0.96581942       0.96143116       0.66239211       0.11911273       0.41942302       0.63877483       0.23175183       0.22440386       0.47333157       0.43347295
Si       9.54626000       1.42733000       4.04003000      -0.23466700       1.87762000       0.63865900       0.50918126       0.11245068       0.44026984       0.05495287       0.10626636       0.13983551       0.61397557       0.99378276       0.83175466       0.04957185
Si      10.90140000       5.55753000      -0.15247500      -0.17164000      -2.45179000       0.73890100       0.80088719       0.77818274       0.79140865       0.75096909       0.07842769       0.80402231       0.67288049       0.91582452       0.61569172       0.43042497
Si       2.55021000       8.11151000       0.02727890       2.30643000      -0.00093342      -0.13939800       0.11859864       0.64896005       0.68967388       0.72459065       0.11311913       0.03564093       0.38146628       0.85225080       0.34296505       0.10002668
Si      -0.21588900       8.23091000       2.72362000       2.88623000      -2.02879000       1.60035000       0.79465773       0.65873031       0.17924878       0.20539624       0.60849051       0.63983549       0.72591041       0.33604951       0.65773300       0.09668128
Si       2.64160000       5.51165000       2.66817000       0.87763900      -1.00594000       0.10098500       0.63096497       0.92456222       0.51274941       0.84501494       0.46325659       0.35652941       0.32500330       0.78811828       0.13166180       0.51326827
Si       1.21773000       6.78710000       1.36542000      -0.43645100       1.19262000       0.60941100       0.69898057       0.15359822       0.09501679       0.88462085       0.20495624       0.52385099       0.74449269       0.84131090       0.62534823       0.92453774
Si       3.96889000       9.48350000       1.42913000      -0.23480900      -1.13972000      -0.67085400       0.23086634       0.34431171       0.42827147       0.12154982       0.93277292       0.93127574       0.54593554       0.42084717       0.61336393       0.46707851
Si       1.28620000       9.56070000       4.07143000      -0.42557100       0.71337600      -0.08592310       0.61840455       0.81641458       0.36094414       0.11798300       0.68425605       0.61824549       0.95946196       0.71319476       0.37106688       0.39546903
Si       4.16746000       6.77009000       3.98760000      -1.52980000       1.12373000       0.12677100       0.34240398       0.88758324       0.37328246       0.82023559       0.10396025       0.21562296       0.49519486       0.04971834       0.79674845       0.54271493
Si       5.53249000       5.34289000       0.08094310       0.29759300       0.83694100      -2.48990000       0.09247001       0.25165523       0.84612700       0.72823666       0.21224772       0.56957503       0.43476021       0.54520722       0.88302294       0.45573199
Si       8.12186000       8.17121000      10.89250000       1.10983000      -1.53615000      -0.56450100       0.15640661       0.62734888       0.40525738       0.91892257       0.16713211       0.63830276       0.91992519       0.19563993       0.75219120       0.97514659
Si       5.50517000       8.22124000       2.66762000      -1.23109000      -0.36791100       0.75972400       0.36000491       0.48890388       0.25376425       0.30203229       0.58377139       0.90749868       0.91231593       0.93805751       0.80126542       0.44137374
Si       8.18650000       5.53225000       2.78107000      -1.22925000      -0.04413780      -1.03091000       0.77034364       0.19116110       0.41124283       0.02944764       0.17848073       0.04286625       0.00893634       0.50770690       0.58016862       0.21949826
Si       6.75104000       6.81651000       1.35396000       1.32017000      -0.13083600       0.55280900       0.50290458       0.07049360       0.22723729       0.29252602       0.90910196       0.85558870       0.88977340       0.69351508       0.46783505       0.09949205
Si       9.52788000       9.45856000       1.37394000      -2.04569000       2.11279000      -0.24219800       0.21809157       0.06662555       0.90904976       0.01100641       0.82252448       0.22451096       0.37590224       0.39262588       0.38759442       0.13418956
Si       6.68098000       9.51489000       4.20168000       2.35185000       0.00688967      -1.61716000       0.78012691       0.93532272       0.98247037       0.16509209       0.01260722       0.53331703       0.11024432       0.50312635       0.60500411       0.53368141
Si       9.41953000       6.85950000       4.17444000       0.77186800       0.05256020      -0.16010700       0.28619186       0.52482713       0.24515343       0.81177239       0.56464439       0.64648223       0.72064947       0.73449355       0.37637123       0.35458603
Si      10.76870000      11.07470000       5.44239000       1.77104000      -1.92579000       0.92671500       0.15642843       0.67363829       0.83183365       0.37844549       0.53671273       0.04883022       0.96158025       0.24987157       0.03015061       0.01798157
Si       2.63220000       2.75621000       5.35627000       1.21308000       0.34904600       0.33820000       0.73241301       0.33670668       0.82428027       0.65560028       0.82848552       0.72289089       0.09615908       0.55409401       0.74623447       0.00816650
Si      -0.06603530       2.60150000       8.15924000      -0.74221000       0.60858300       0.60486400       0.58790859       0.09360582       0.17763449       0.57062102       0.35544083       0.85453962       0.16899635       0.73687605       0.61201432       0.32834104
Si       2.79836000      -0.00300858       7.98361000       0.27554600       0.66109000       1.12231000       0.30955487       0.44734381       0.96705833       0.20803265       0.98663427       0.18438413       0.19036078       0.64609351       0.69739895       0.39807544
Si       1.39810000       1.51082000       6.80255000      -0.46567300      -1.88333000      -0.55146000       0.61179065       0.44387552       0.19302606       0.36530811       0.26964005       0.27809999       0.60880044       0.35406231       0.00801177       0.17792558
Si       4.08333000       3.99564000       6.79410000      -0.58414800       0.42847300      -0.41173900       0.02750616       0.08243932       0.75991297       0.63761415       0.09664280       0.12021146       0.67917931       0.78193081       0.56200856       0.64438914
Si       1.31246000       3.96491000       9.43482000      -0.57631300       1.30216000       0.18257000       0.38489067       0.81600045       0.34619717       0.24131566       0.35825240       0.46513754       0.11249867       0.52506534       0.58733585       0.19151955
Si       4.09923000       1.20933000       9.60951000      -0.22011000       1.30377000      -0.96435500       0.74986821       0.98669714       0.73829504       0.78740848       0.68126338       0.73490574       0.15652879       0.31262085       0.91998139       0.80802597
Si       5.41222000      10.85100000       5.42389000      -1.12753000      -0.32065400       2.28999000       0.31524099       0.40135014       0.50254651       0.82919397       0.15813305       0.13926658       0.87680223       0.64486080       0.04665654       0.61555308
Si       8.15585000       2.68126000       5.44615000      -0.50136800       0.21669800      -0.85126700       0.13070703       0.91672454       0.05166876       0.77736567       0.50764575       0.48474498       0.15154535       0.87273848       0.11277661       0.35625881
Si       5.47598000       2.62156000       8.11391000       0.14993100      -0.46337900       0.84299800       0.00518801       0.16659101       0.36615998       0.58198945       0.33391038       0.78943626       0.26777587       0.32536837       0.27021594       0.46345422
Si       8.18023000      -0.10513100       8.34939000       0.78762400       1.48734000       0.30832900       0.30449668       0.26743930       0.92590784       0.84163659       0.93919800       0.25790535       0.77580382       0.94591799       0.57909415       0.00323231
Si       6.90855000       1.19762000       6.83369000      -0.72389000       0.76161200      -0.01515310       0.26208037       0.04229665       0.81151796       0.09037843       0.88643399       0.89407158       0.69618948       0.34259224       0.06911630       0.30539566
Si       9.54256000       4.07632000       6.65520000      -0.24471400      -0.40620700       2.00334000       0.46844362       0.99953669       0.71411828       0.61612881       0.34013965       0.08188083       0.54761360       0.79254289       0.54140169       0.02983820
Si       6.94183000       4.03900000       9.39056000      -1.50425000      -0.57891600       1.08366000       0.91811279       0.64704442       0.22011034       0.80988212       0.95557073       0.51504837       0.66510331       0.87595594       0.03677443       0.65761202
Si       9.68904000       1.16969000       9.85295000      -1.19217000       0.76966100      -2.81954000       0.35818357       0.48676003       0.71692191       0.04229758       0.31703945       0.54202959       0.92582910       0.33201169       0.17845989       0.31542836
Si      10.87180000       5.49210000       5.44011000       0.73991800       0.29393200      -0.91126600       0.01658877       0.87713534       0.77205600       0.72712222       0.87824505       0.39970397       0.09106206       0.01017434       0.91782408       0.30413139
Si       2.71997000       8.17989000       5.38851000       0.74701600      -0.48293400      -1.73435000       0.23328911       0.50345014       0.52769228       0.93697522       0.54960528       0.59006046       0.74726519       0.94419105       0.46207158       0.87707444
Si      10.92550000       8.21827000       7.94377000      -0.46897000      -0.16940600       2.81907000       0.70329305       0.38214248       0.43132895       0.36747459       0.12642127       0.19465162       0.50363694       0.59778071       0.96071878       0.17334414
Si       2.64014000       5.36122000       8.12273000       1.30586000       1.10687000       0.00607545       0.97250882       0.97161340       0.28683254       0.26526242       0.67094190       0.77124771       0.79925772       0.28760748       0.14618260       0.85196475
Si       1.43240000       6.93422000       6.72313000      -0.39966100      -2.65264000       0.01080110       0.11202628       0.29536682       0.49077343       0.78921277       0.36079513       0.63543099       0.22049672       0.05920032       0.36509035       0.58732138
Si       4.06433000       9.27555000       6.86101000       0.14187800       3.48845000      -2.17934000       0.85718616       0.68835238       0.65392190       0.34474253       0.87944681       0.67744513       0.37262986       0.02825741       0.65850833       0.14662802
Si       1.54028000       9.50454000       9.35711000      -1.90858000      -0.48631200       0.03181180       0.47829843       0.37692650       0.68012155       0.57511485       0.04774559       0.13415871       0.24013110       0.42169199       0.36258089       0.31613481
Si       4.12404000       6.77901000       9.56222000      -0.76338200      -0.56558400      -0.11836600       0.33488136       0.24474983       0.23272256       0.81761066       0.07089084       0.62219834       0.59204465       0.50495479       0.20117692       0.91713827
Si       5.36622000       5.42916000       5.40708000       1.16024000      -0.57545700       0.20906000       0.40005293       0.16840628       0.94490970       0.96220709       0.53774167       0.03768551       0.64342601       0.86650667       0.19163329       0.38653012
Si       8.09118000       8.17655000       5.51354000       0.26540500       1.04498000       0.03928030       0.31177354       0.61530426       0.35707357       0.68435027       0.65155527       0.71070009       0.35934960       0.27700095       0.36904987       0.22187742
Si       5.45909000       8.23866000       8.18581000       0.54327800      -2.99184000       0.76320100       0.09197021       0.23922661       0.63409243       0.93709421       0.95219300       0.42840645       0.60841624       0.76255980       0.24605852       0.34810815
Si       8.17974000       5.45398000       8.05893000       0.27911000      -0.25099000      -0.72722500       0.42835742       0.88850032       0.13240861       0.12587253       0.44214030       0.62424563       0.64383357       0.85113239       0.08341764       0.32291845
Si       6.75226000       6.82432000       6.75195000      -0.54866000      -0.52900000       0.95474100       0.06394130       0.56091103       0.07745420       0.00322071       0.75865710       0.50540499       0.39891382       0.82104722       0.53628598       0.95569310
Si       9.47495000       9.60175000       6.86423000       0.01394010      -0.08799810      -1.63896000       0.66205090       0.03651962       0.00349350       0.67178964       0.60506197       0.95547988       0.82831623       0.58026946       0.25029794       0.49567003
Si       6.78552000       9.45079000       9.57819000      -0.25100500       0.27457200       0.22036600       0.67925666       0.28058108       0.35069389       0.91527166       0.93147523       0.79278266       0.55205619       0.44368038       0.41384253       0.40049655
Si       9.54394000       6.74259000       9.42210000      -0.65143600       2.91237000      -0.90527300       0.03827679       0.43423272       0.75177708       0.62363751       0.14727456       0.46147952       0.56479441       0.79997083       0.64366977       0.55481336
