64
Lattice="10.862 0.0 0.0 0.0 10.862 0.0 0.0 0.0 10.862" Properties=species:S:1:pos:R:3:atomic_forces_forces:R:3 energy_energy=-270.89026562373294 cauchy_stress_stress="-0.0022994585353104885 -0.0019209182686078415 -0.0025363811343338673 0.006290066630920259 -0.007526896694504104 0.0012758738363694727" pbc="T T T"
Si      11.07690000      -0.23627300      10.97520000      -0.08918670      -0.14665667      -0.71462446
Si       2.63813000       2.76067000      -0.01216010       1.84373658      -0.92551740       0.00648225
Si      -0.09799430       2.79426000       2.61849000       0.01874789       0.14313614      -1.34903696
Si       2.65653000      10.92750000       2.62646000       0.43991915      -0.00007346       2.12583209
Si       1.33535000       1.34158000       1.27880000      -0.47723892       1.32873707       0.95643690
Si       4.12469000       4.13377000       1.32433000      -1.86517842      -0.80525773       0.77256608
Si       1.29302000       4.05539000       3.98890000      -0.06278215       1.33259176       0.17272617
Si       4.08284000       1.38825000       4.12412000      -0.49949915       0.19191236      -1.49536544
Si       5.40450000      -0.19633900      10.97250000       0.42567262       1.33710276      -0.03543924
Si       8.15848000       2.63210000      10.88880000      -0.47217762      -0.30990950       0.39466986
Si       5.45879000       2.80457000       2.71353000      -0.32261003      -1.79765016      -0.31344390
Si       8.25058000       0.08223370       2.91139000      -1.43168949      -3.16326797      -1.53951542
Si       6.81407000       1.18082000       1.48010000      -0.55523026       1.83920078      -0.71951273
Si       9.34493000       4.28442000       1.18037000       1.90731317      -1.00717284       1.01606552
Si       6.81293000       4.10475000       4.00463000       0.23686193       0.13288765       1.66700122
Si       9.54626000       1.42733000       4.04003000      -0.23408628       1.87719192       0.63899519
Si      10.90140000       5.55753000      -0.15247500      -0.17078638      -2.45169577       0.73910548
Si       2.55021000       8.11151000       0.02727890       2.30622145      -0.00100081      -0.13935684
Si      -0.21588900       8.23091000       2.72362000       2.88612284      -2.02873098       1.60034685
Si       2.64160000       5.51165000       2.66817000       0.87756852      -1.00589625       0.10095142
Si       1.21773000       6.78710000       1.36542000      -0.43661619       1.19238277       0.60914675
Si       3.96889000       9.48350000       1.42913000      -0.23491176      -1.13922004      -0.67086101
Si       1.28620000       9.56070000       4.07143000      -0.42519954       0.71335716      -0.08623465
Si       4.16746000       6.77009000       3.98760000      -1.52969687       1.12368186       0.12676496
Si       5.53249000       5.34289000       0.08094310       0.29757461       0.83684828      -2.48982588
Si       8.12186000       8.17121000      10.89250000       1.10983729      -1.53608451      -0.56429801
Si       5.50517000       8.22124000       2.66762000      -1.23096467      -0.36798389       0.75975969
Si       8.18650000       5.53225000       2.78107000      -1.22917957      -0.04408801      -1.03089748
Si       6.75104000       6.81651000       1.35396000       1.32017059      -0.13075161       0.55278005
Si       9.52788000       9.45856000       1.37394000      -2.04557503       2.11278022      -0.24237275
Si       6.68098000       9.51489000       4.20168000       2.35176879       0.00693434      -1.61700856
Si       9.41953000       6.85950000       4.17444000       0.77193162       0.05247092      -0.16010740
Si      10.76870000      11.07470000       5.44239000       1.77004778      -1.92517417       0.92641777
Si       2.63220000       2.75621000       5.35627000       1.21301329       0.34905502       0.33818603
Si      -0.06603530       2.60150000       8.15924000      -0.74220416       0.60862338       0.60476275
Si       2.79836000      -0.00300858       7.98361000       0.27540609       0.66105579       1.12232190
Si       1.39810000       1.51082000       6.80255000      -0.46544176      -1.88330113      -0.55136054
Si       4.08333000       3.99564000       6.79410000      -0.58412332       0.42842374      -0.41158560
Si       1.31246000       3.96491000       9.43482000      -0.57637942       1.30210606       0.18272497
Si       4.09923000       1.20933000       9.60951000      -0.22013744       1.30378250      -0.96447412
Si       5.41222000      10.85100000       5.42389000      -1.12739959      -0.32078264       2.28989386
Si       8.15585000       2.68126000       5.44615000      -0.50141209       0.21677058      -0.85114991
Si       5.47598000       2.62156000       8.11391000       0.14984193      -0.46324264       0.84292058
Si       8.18023000      -0.10513100       8.34939000       0.78750656       1.48727381       0.30825402
Si       6.90855000       1.19762000       6.83369000      -0.72378517       0.76150131      -0.01518721
Si       9.54256000       4.07632000       6.65520000      -0.24474574      -0.40621503       2.00333066
Si       6.94183000       4.03900000       9.39056000      -1.50418210      -0.57885504       1.08357679
Si       9.68904000       1.16969000       9.85295000      -1.19193194       0.76948729      -2.81925035
Si      10.87180000       5.49210000       5.44011000       0.73978441       0.29396495      -0.91126751
Si       2.71997000       8.17989000       5.38851000       0.74708456      -0.48283452      -1.73427561
Si      10.92550000       8.21827000       7.94377000      -0.46850691      -0.16952356       2.81899594
Si       2.64014000       5.36122000       8.12273000       1.30580554       1.10676282       0.00599177
Si       1.43240000       6.93422000       6.72313000      -0.39978292      -2.65245066       0.01095227
Si       4.06433000       9.27555000       6.86101000       0.14183724       3.48829859      -2.17933710
Si       1.54028000       9.50454000       9.35711000      -1.90842603      -0.48629621       0.03163001
Si       4.12404000       6.77901000       9.56222000      -0.76325932      -0.56547283      -0.11840237
Si       5.36622000       5.42916000       5.40708000       1.16021427      -0.57549230       0.20892864
Si       8.09118000       8.17655000       5.51354000       0.26530555       1.04498410       0.03928110
Si       5.45909000       8.23866000       8.18581000       0.54321862      -2.99183270       0.76312630
Si       8.17974000       5.45398000       8.05893000       0.27907864      -0.25107153      -0.72728699
Si       6.75226000       6.82432000       6.75195000      -0.54862004      -0.52887892       0.95479284
Si       9.47495000       9.60175000       6.86423000       0.01396088      -0.08785484      -1.63904674
Si       6.78552000       9.45079000       9.57819000      -0.25085020       0.27450759       0.22019264
Si       9.54394000       6.74259000       9.42210000      -0.65175519       2.91242283      -0.90538653
