64
Lattice="10.862 0.0 0.0 0.0 10.862 0.0 0.0 0.0 10.862" Properties=species:S:1:pos:R:3:atomic_forces_forces:R:3:ltau_forces_uq_score:R:1 co-id=CO_1745974484846349889 energy_energy=-264.5584 energy_per_atom=F ltau_forces_uq_bins="_JSON [9.826158705261703e-06, 1.1027062170109953e-05, 1.2374733988202081e-05, 1.388711144604322e-05, 1.558432403465697e-05, 1.7488961369744564e-05, 1.9626373855691547e-05, 2.2025010095210678e-05, 2.4716795535485803e-05, 2.7737557390534585e-05, 3.1127501495435235e-05, 3.4931747439266745e-05, 3.92009290992939e-05, 4.399186856940476e-05, 4.9368332452677637e-05, 5.5401880584202616e-05, 6.217281848051923e-05, 6.977126619261002e-05, 7.82983577887071e-05, 8.786758743182653e-05, 9.860631996809534e-05, 0.00011065748613155361, 0.00012418148492831835, 0.00013935831852052977, 0.0001563899880250244, 0.00017550318211441527, 0.00019695229420541328, 0.00022102280839265498, 0.00024803509919425754, 0.0002783486956830725, 0.0003123670667585158, 0.00035054299125013993, 0.0003933845843281282, 0.00044146206043123326, 0.0004954153227255848, 0.0005559624801088134, 0.000623909405119375, 0.000700160459965258, 0.0007857305334337209, 0.0008817585488913106, 0.000989522623163398, 0.0011104570780553508, 0.001246171530935888, 0.0013984723184750493, 0.0015693865386831691, 0.0017611890312463712, 0.0019764326552623285, 0.0022179822673679007, 0.0024890528525018216, 0.0027932523148165534, 0.0031346294982791336, 0.003517728076107228, 0.003947647026299737, 0.004430108498181178, 0.0049715339732521865, 0.005579129734034302, 0.00626098277848512, 0.007026168456588584, 0.007884871261745434, 0.008848520384677058, 0.009929941834042498, 0.0111435291484686, 0.012505434972141823, 0.014033786043800957, 0.015748924460598036, 0.017673678428009317, 0.019833666099432202, 0.022257636549522425, 0.024977852419569537, 0.028030519327856575, 0.03145626776038425, 0.03530069385584423, 0.03961496628259934, 0.044456507285101664, 0.04988975696436252, 0.055987030964919623, 0.06282948298397104, 0.07050818491351256, 0.07912533899198845, 0.08879563809899231, 0.09964779229831235, 0.11182624194735377, 0.12549308017413968, 0.1408302103097339, 0.15804176699115657, 0.1773568331592601, 0.19903248911436056, 0.22335723421203718, 0.250654826741305, 0.2812885930932962, 0.31566626357475674, 0.3542453992302428, 0.3975394819030924, 0.44612474859288853, 0.5006478610735438, 0.5618345128533615, 0.6304990880342648, 0.7075555006279824, 0.794029358598705, 0.8910716145335489, 0.9999738846290095]" ltau_forces_uq_num_nearest_neighbors=1 ltau_forces_uq_index_type=IndexFlatL2 ltau_forces_uq_index_args=None pbc="T T T"
Si      10.85880000       0.03415980      10.81620000       0.65600500       0.22748800       0.27979800       0.49211152
Si       2.73055000       2.77429000       0.06036780      -0.06201350      -0.59410600      -0.02485580       0.45995577
Si      -0.09275380       2.78812000       2.68701000      -0.53826300      -0.58004200       0.09859970       0.52447718
Si       2.55128000      10.97030000       2.79642000       0.53757100      -1.56186000      -0.24860700       0.50345904
Si       1.25941000       1.41665000       1.41600000       0.35379900       0.39158200      -1.29635000       0.48823382
Si       4.07132000       4.19696000       1.42414000       0.62759400      -1.17781000      -2.01846000       0.50822587
Si       1.32000000       4.03040000       3.94536000       0.22169000       1.29763000       1.53906000       0.45519870
Si       4.10937000       1.31933000       3.99275000      -1.11690000       0.32747600       1.61874000       0.58998279
Si       5.44565000      -0.08948650      10.97810000      -1.35549000      -1.11826000      -1.58989000       0.49640405
Si       8.12662000       2.64359000      11.01610000       1.51063000       0.57010700      -0.84553600       0.46645132
Si       5.35318000       2.64950000       2.61184000       1.57006000       1.05132000       1.11837000       0.50366834
Si       8.15455000      -0.15044200       2.58780000       0.79004400       2.29176000       1.05149000       0.48505274
Si       6.75569000       1.23545000       1.32130000       0.32518500       0.81042200       1.52959000       0.54187537
Si       9.57596000       4.27904000       1.33331000      -2.01071000      -1.23428000       0.42431900       0.55772935
Si       6.70667000       4.08295000       4.18891000      -0.09850140      -0.36613000      -2.93135000       0.46772375
Si       9.45267000       1.34718000       4.07680000      -1.07004000       0.43298500      -0.49803500       0.48504937
Si      10.94240000       5.43892000      -0.11138100       0.08040810       0.75690800      -0.39395600       0.50698100
Si       2.80475000       8.07568000      -0.07373260      -1.46277000       1.15490000       0.15865000       0.51801237
Si       0.02877370       8.10925000       2.70889000      -0.96625500       1.47584000       1.87136000       0.52447718
Si       2.67570000       5.45185000       2.61559000      -1.30969000       1.54347000       0.87560400       0.54205814
Si       1.24544000       6.95785000       1.28337000       2.35144000      -2.62636000      -0.77051400       0.50112240
Si       3.93019000       9.43160000       1.50463000       0.87875400       1.11271000      -0.49678100       0.53593914
Si       1.23730000       9.57965000       4.20128000       0.29128100      -0.05515850      -0.87373900       0.47503982
Si       4.05006000       6.78348000       4.03126000      -0.06230020       0.76593600      -0.31019500       0.50883677
Si       5.39114000       5.43801000      -0.13474700       1.96933000      -1.16233000       2.97561000       0.48057258
Si       8.37170000       8.11398000      10.88250000      -1.23941000       1.03147000       0.63921200       0.51065867
Si       5.50536000       8.24432000       2.81818000       0.10323000      -0.88326300      -0.74978900       0.48384092
Si       7.97972000       5.57318000       2.68999000       2.15040000      -2.38533000       1.49389000       0.49755780
Si       6.86116000       6.83363000       1.27305000      -2.27676000       1.21675000      -0.52017600       0.54711650
Si       9.66115000       9.53298000       1.33235000      -0.51621700      -1.04955000       0.15819400       0.48396270
Si       6.90742000       9.65382000       4.15556000      -1.35986000      -1.56892000      -0.20613800       0.53321709
Si       9.54014000       6.71391000       4.11134000      -2.12091000       2.26156000      -1.52149000       0.51810053
Si      10.75290000      10.96120000       5.55861000      -0.12517400      -1.00549000      -1.99449000       0.47503982
Si       2.66854000       2.70600000       5.40566000       1.02424000      -0.17213900      -0.50874300       0.48691612
Si      -0.13278400       2.72329000       8.16064000       0.66881300      -1.63102000      -0.09016590       0.47273966
Si       2.68466000       0.02410620       8.23376000       0.89797800       0.79931900      -1.78154000       0.49795997
Si       1.29268000       1.34987000       6.72820000       0.75478300       1.01940000       2.30761000       0.49830687
Si       4.18821000       3.94447000       6.83747000      -0.69138600       1.12251000      -1.75568000       0.45961131
Si       1.40202000       3.97112000       9.38901000      -0.01145740       1.27108000       0.33086200       0.49551459
Si       4.10172000       1.36091000       9.54680000       0.33329000      -0.11720300       0.77408800       0.44464555
Si       5.39108000      10.82790000       5.48053000       1.19440000       1.55130000       0.12636800       0.53976783
Si       8.02123000       2.72971000       5.49467000       1.26136000      -0.78895000      -0.29390100       0.49407403
Si       5.54777000       2.67069000       8.17849000      -0.54179700       0.16561200       1.63880000       0.53388341
Si       8.14100000      -0.15984100       8.16480000       0.33526200      -0.04090520      -0.73502000       0.48257206
Si       6.83107000       1.33164000       6.91802000      -0.44550800      -1.32160000      -1.44200000       0.46700434
Si       9.42089000       4.04352000       6.82962000       0.22449900       1.35264000      -0.93995200       0.50102799
Si       6.88373000       4.00711000       9.62140000      -0.34316900       0.92812900      -1.59019000       0.50491613
Si       9.38492000       1.22247000       9.50373000       0.55512500       1.72731000       0.37859800       0.51740183
Si      10.80330000       5.47357000       5.39353000       1.40483000      -2.51321000       0.62607500       0.51734255
Si       2.76414000       8.24627000       5.38873000       1.26466000       0.82051100      -0.28256400       0.50011468
Si      10.99440000       8.16439000       7.99780000       0.11046700      -0.06379860       0.34126400       0.45717299
Si       2.76464000       5.39723000       7.99077000      -0.93507600      -0.59677900      -0.00696244       0.51362832
Si       1.47178000       6.84565000       6.52243000      -0.85906700      -1.26913000       2.40938000       0.46833056
Si       4.19197000       9.51480000       6.92683000      -1.43679000      -1.08596000       0.30445400       0.45400613
Si       1.35830000       9.57417000       9.46366000       0.24194000      -1.69249000       0.77999100       0.51059981
Si       4.03135000       6.57240000       9.49779000      -0.68164100       2.05256000      -1.20545000       0.46587701
Si       5.41034000       5.49188000       5.37777000      -0.59591700      -0.56405500       1.82378000       0.44473195
Si       8.12524000       8.18874000       5.45071000       0.53696100      -1.29735000      -0.84673800       0.46587701
Si       5.46857000       7.96966000       8.31767000      -0.21160900       1.40598000      -0.71802200       0.52384486
Si       8.14623000       5.53267000       8.12521000       0.33213900      -0.75336700       1.38458000       0.49904924
Si       6.76499000       6.82719000       6.78501000      -0.06997540      -0.31058700      -0.32658100       0.48882865
Si       9.54309000       9.41506000       6.69894000      -0.45372800       0.92598500       1.78283000       0.56761479
Si       6.90358000       9.38815000       9.58779000      -1.21045000      -0.03251930       0.56589500       0.53467942
Si       9.61407000       6.94290000       9.47399000       0.62066900      -2.24272000      -1.59320000       0.45995577
