64
Lattice="10.86199986 0.0 0.0 0.0 10.86199986 0.0 0.0 0.0 10.86199986" Properties=species:S:1:pos:R:3:atomic_forces_forces:R:3 co-id=CO_1998635631486406409 energy_energy=-9931.355814217828 energy_per_atom=F cauchy_stress_stress="_JSON [-0.019589810877895502, -0.018296126798079473, -0.019549411942826726, 0.004230870290839074, -0.005037012676984192, 0.0008511321092898917]" cauchy_stress_volume_normalized=F pbc="T T T"
Si      11.07690018      -0.23627348      10.97520036      -0.01169132      -0.26203115      -0.74689004
Si       2.63812994       2.76066959      -0.01216001       1.43540756      -0.70303551      -0.03284121
Si      -0.09799479       2.79426033       2.61849036       0.00082790       0.15982877      -1.09563010
Si       2.65653017      10.92749989       2.62645981       0.50757176       0.06834635       1.70936451
Si       1.33535037       1.34157972       1.27879954      -0.22782674       1.18124887       0.88103401
Si       4.12469021       4.13376975       1.32432978      -1.57336293      -0.70624141       0.57664419
Si       1.29302007       4.05538956       3.98890000       0.03472660       0.92126123      -0.00540472
Si       4.08284001       1.38825048       4.12411995      -0.34989654       0.18254987      -0.88640787
Si       5.40449991      -0.19633934      10.97250007       0.28715417       1.01801904      -0.03420544
Si       8.15847959       2.63210044      10.88879967      -0.36213320      -0.21570450       0.12901719
Si       5.45879036       2.80456945       2.71352960      -0.38412101      -1.42256155      -0.22313242
Si       8.25057958       0.08223403       2.91138962      -1.27543969      -2.27122691      -1.30338552
Si       6.81407032       1.18081995       1.48009955      -0.45978806       1.41898309      -0.52898776
Si       9.34493041       4.28442026       1.18037027       1.16805294      -0.72756460       0.76491450
Si       6.81292981       4.10474975       4.00463035       0.17953293       0.08263808       1.21456702
Si       9.54625975       1.42732978       4.04002961       0.06783907       1.73583479       0.43432077
Si      10.90139959       5.55753028      -0.15247532       0.04538434      -1.97646768       0.65826849
Si       2.55020965       8.11151013       0.02727883       1.78273788      -0.12823917      -0.23053282
Si      -0.21588876       8.23090958       2.72362040       2.29324970      -1.86544436       1.59313959
Si       2.64160035       5.51165028       2.66816989       0.81961421      -0.66949701       0.07695055
Si       1.21773011       6.78709997       1.36541964      -0.33486639       0.79510671       0.48543508
Si       3.96889003       9.48350020       1.42912961      -0.34415270      -0.81338494      -0.42847948
Si       1.28619982       9.56069969       4.07142948      -0.27913027       0.56448107      -0.07612677
Si       4.16746042       6.77009008       3.98759982      -1.10885380       0.82163921       0.09730263
Si       5.53249011       5.34288956       0.08094362       0.34739563       0.58054507      -1.96408962
Si       8.12185945       8.17120986      10.89250036       0.81960881      -1.20981717      -0.42017482
Si       5.50517001       8.22124023       2.66762027      -0.95673911      -0.24627492       0.43664942
Si       8.18650030       5.53225006       2.78106951      -0.81236216      -0.02218888      -0.74197589
Si       6.75104031       6.81650993       1.35396023       0.96407138      -0.13890513       0.47618656
Si       9.52788016       9.45855996       1.37393979      -1.76497027       1.78718101      -0.55349475
Si       6.68098041       9.51489029       4.20168006       1.81439176      -0.14724425      -1.36738671
Si       9.41952954       6.85949955       4.17444034       0.66963122      -0.02273755      -0.03186420
Si      10.76869963      11.07469954       5.44238982       1.44763264      -1.60119589       0.86564030
Si       2.63220037       2.75620965       5.35627046       0.99597646       0.28694720       0.21398675
Si      -0.06603553       2.60150002       8.15923993      -0.59512682       0.37145062       0.60865288
Si       2.79835964      -0.00300877       7.98361009       0.25429881       0.54470466       0.85649514
Si       1.39810014       1.51081946       6.80255008      -0.38222148      -1.38472726      -0.30895121
Si       4.08332988       3.99563987       6.79409945      -0.53902381       0.39692459      -0.33849962
Si       1.31245979       3.96491019       9.43481997      -0.45771113       1.03800654       0.00454777
Si       4.09922968       1.20932944       9.60951026      -0.05005064       1.08215675      -0.77426869
Si       5.41221953      10.85099991       5.42388966      -0.79009280      -0.07806435       1.66938823
Si       8.15584990       2.68125968       5.44615025      -0.50705625       0.09891420      -0.57294874
Si       5.47597947       2.62155996       8.11390955       0.08305769      -0.26566823       0.59502681
Si       8.18022966      -0.10513112       8.34939010       0.55186390       1.24797928       0.26567620
Si       6.90855017       1.19762021       6.83369035      -0.49601259       0.65832248       0.05963031
Si       9.54256015       4.07631955       6.65519945      -0.31314340      -0.33021963       1.43601331
Si       6.94183025       4.03899989       9.39055950      -1.02848780      -0.61737638       0.69228778
Si       9.68903965       1.16968966       9.85294940      -1.06335659       0.80839211      -2.02445063
Si      10.87179956       5.49209977       5.44010989       0.74600044       0.13004203      -0.57298268
Si       2.71996968       8.17988968       5.38850996       0.61368607      -0.29865729      -1.49663401
Si      10.92550020       8.21826947       7.94376936      -0.46248952      -0.02879404       1.94534447
Si       2.64014050       5.36122027       8.12272949       1.09713111       0.85372838       0.03598696
Si       1.43240016       6.93422033       6.72313040      -0.25980226      -2.25331970       0.07633014
Si       4.06433007       9.27554938       6.86101045      -0.18932575       2.61392411      -1.67574580
Si       1.54028046       9.50453989       9.35710997      -1.29729432      -0.29473198       0.05111790
Si       4.12403957       6.77900996       9.56222037      -0.55650525      -0.53532965       0.14123455
Si       5.36622005       5.42915991       5.40707963       0.80296606      -0.55628465       0.25104508
Si       8.09117973       8.17654962       5.51354027       0.09700926       0.80082253       0.03779856
Si       5.45909015       8.23865962       8.18580947       0.39349911      -2.27773541       0.69853068
Si       8.17973979       5.45397958       8.05892937       0.17991089      -0.15564816      -0.43616863
Si       6.75226011       6.82431970       6.75194946      -0.50453529      -0.47282561       0.74532501
Si       9.47494963       9.60174936       6.86422995      -0.02858604       0.00786963      -1.20610218
Si       6.78551955       9.45079037       9.57818968      -0.24385962       0.30043649       0.05620946
Si       9.54393962       6.74258967       9.42209949      -0.49021553       2.14085990      -0.76230046
