64
Lattice="10.862 0.0 0.0 0.0 10.862 0.0 0.0 0.0 10.862" Properties=species:S:1:pos:R:3:atomic_forces_forces:R:3:quests_descriptor_descriptors:R:63 energy_energy=-264.5584 energy_per_atom=F quests_descriptor_num_nearest_neighbors=32 quests_descriptor_cutoff=5.0 quests_descriptor_species="_JSON [\"species-agnostic\"]" pbc="T T T"
Si      10.85880000       0.03415980      10.81620000       0.65600500       0.22748800       0.27979800       0.27551203       0.26935239       0.26293133       0.25240476       0.05294816       0.05252723       0.04862581       0.04843944       0.04829254       0.04680605       0.04519773       0.04137958       0.04073076       0.03797291       0.03735553       0.03372736       0.01400680       0.01331368       0.01127510       0.01091284       0.00886720       0.00848674       0.00839318       0.00812266       0.00651175       0.00595396       0.00472007       0.00406134       0.00000000       0.00000000       0.00000000       0.00000000       0.08771981       0.06244119       0.05969028       0.05131805       0.04558569       0.04172364       0.03346158       0.03182668       0.02953499       0.02661546       0.02517575       0.02338085       0.02189408       0.02086383       0.01977837       0.01893646       0.01786876       0.01647055       0.01461027       0.01316795       0.01163850       0.01103270       0.01018064       0.00934492       0.00862358       0.00815885       0.00662128       0.00000000       0.00000000       0.00000000       0.00000000
Si       2.73055000       2.77429000       0.06036780      -0.06201350      -0.59410600      -0.02485580       0.25699914       0.25051451       0.24631784       0.24281603       0.05876788       0.05517951       0.05003923       0.04939168       0.04502844       0.04332768       0.04257305       0.04137958       0.03689854       0.03688884       0.03600419       0.03382900       0.01763841       0.01488502       0.01103875       0.00887732       0.00834866       0.00827296       0.00728657       0.00711671       0.00500832       0.00500560       0.00376991       0.00281195       0.00000000       0.00000000       0.00000000       0.00000000       0.08440834       0.05959812       0.05789970       0.04933790       0.04468690       0.04078457       0.03315544       0.03092659       0.02899196       0.02595035       0.02434637       0.02279480       0.02148146       0.02046074       0.01943169       0.01837635       0.01701939       0.01572535       0.01406880       0.01246181       0.01117271       0.01025680       0.00946848       0.00851385       0.00796786       0.00681206       0.00587250       0.00000000       0.00000000       0.00000000       0.00000000
Si      -0.09275380       2.78812000       2.68701000      -0.53826300      -0.58004200       0.09859970       0.27931602       0.26841789       0.26046541       0.24767223       0.05856812       0.04969622       0.04592953       0.04362038       0.04257305       0.04240378       0.04109489       0.04073076       0.03723284       0.03688600       0.03684150       0.03634007       0.01344724       0.00889181       0.00777688       0.00754903       0.00736970       0.00697173       0.00672465       0.00640129       0.00582562       0.00576514       0.00516355       0.00417657       0.00000000       0.00000000       0.00000000       0.00000000       0.08431222       0.06065659       0.05739120       0.04847767       0.04327303       0.03975973       0.03192111       0.03015226       0.02736980       0.02473905       0.02359247       0.02240357       0.02085817       0.01953656       0.01874258       0.01766422       0.01577330       0.01408736       0.01298839       0.01172037       0.01063308       0.00979798       0.00892002       0.00829149       0.00767280       0.00725877       0.00663753       0.00000000       0.00000000       0.00000000       0.00000000
Si       2.55128000      10.97030000       2.79642000       0.53757100      -1.56186000      -0.24860700       0.27044762       0.26838114       0.25280435       0.23859453       0.05674519       0.04969622       0.04968091       0.04798736       0.04574068       0.04519773       0.04502844       0.04419798       0.03858681       0.03578889       0.03111888       0.02711247       0.01723645       0.01685618       0.01527604       0.01388640       0.00858987       0.00594870       0.00585070       0.00567929       0.00523136       0.00474437       0.00335045       0.00201172       0.00000000       0.00000000       0.00000000       0.00000000       0.08453644       0.06043955       0.05813613       0.04912300       0.04432501       0.04093278       0.03272321       0.03079425       0.02825043       0.02612174       0.02379879       0.02256877       0.02131419       0.02053209       0.01980887       0.01861359       0.01727690       0.01548144       0.01385894       0.01256124       0.01128483       0.01042594       0.00922936       0.00825588       0.00724329       0.00649623       0.00545054       0.00000000       0.00000000       0.00000000       0.00000000
Si       1.25941000       1.41665000       1.41600000       0.35379900       0.39158200      -1.29635000       0.27044762       0.26841789       0.25240476       0.24281603       0.06090043       0.05640155       0.04945007       0.04448082       0.04355552       0.04236256       0.04089993       0.03920274       0.03899980       0.03898020       0.03631120       0.03547075       0.01294919       0.01068566       0.01068319       0.01008974       0.01001328       0.00932269       0.00775165       0.00692350       0.00683082       0.00628268       0.00427042       0.00252243       0.00000000       0.00000000       0.00000000       0.00000000       0.08580991       0.06104735       0.05846167       0.04998032       0.04460856       0.04082760       0.03279821       0.03073492       0.02884271       0.02603413       0.02431845       0.02326851       0.02144344       0.02003020       0.01929366       0.01834252       0.01698580       0.01568401       0.01430475       0.01261730       0.01140858       0.01050004       0.00963885       0.00901143       0.00827631       0.00722581       0.00609582       0.00000000       0.00000000       0.00000000       0.00000000
Si       4.07132000       4.19696000       1.42414000       0.62759400      -1.17781000      -2.01846000       0.28956021       0.26202798       0.25051451       0.24904556       0.05857779       0.05774086       0.05226074       0.04527009       0.04368873       0.04247991       0.04086491       0.03625108       0.03606194       0.03555008       0.03547075       0.03250721       0.01432418       0.01373202       0.01273947       0.00961270       0.00878070       0.00756162       0.00725221       0.00585070       0.00582562       0.00452882       0.00398393       0.00312672       0.00000000       0.00000000       0.00000000       0.00000000       0.08532431       0.06106690       0.05852519       0.04938089       0.04427440       0.03978663       0.03267761       0.03057187       0.02796310       0.02573918       0.02376275       0.02283564       0.02130492       0.01970827       0.01904788       0.01794658       0.01689359       0.01527496       0.01385798       0.01231215       0.01117003       0.01035005       0.00936951       0.00847806       0.00770060       0.00714442       0.00608161       0.00000000       0.00000000       0.00000000       0.00000000
Si       1.32000000       4.03040000       3.94536000       0.22169000       1.29763000       1.53906000       0.27931602       0.25316154       0.24938813       0.23224655       0.06090043       0.05547963       0.05226074       0.04943542       0.04539393       0.04461516       0.04198849       0.04092692       0.04004564       0.03525614       0.03287149       0.02772177       0.01723645       0.01488502       0.00959130       0.00912893       0.00902933       0.00857152       0.00777216       0.00582735       0.00447168       0.00400969       0.00394262       0.00319326       0.00000000       0.00000000       0.00000000       0.00000000       0.08454825       0.05990486       0.05788071       0.04990962       0.04494719       0.03991426       0.03267443       0.03066830       0.02816115       0.02644164       0.02414694       0.02240885       0.02126332       0.02027134       0.01934870       0.01810040       0.01674098       0.01512473       0.01389509       0.01229728       0.01099697       0.00996472       0.00928785       0.00845785       0.00756740       0.00672376       0.00598192       0.00000000       0.00000000       0.00000000       0.00000000
Si       4.10937000       1.31933000       3.99275000      -1.11690000       0.32747600       1.61874000       0.27381218       0.26838114       0.25020222       0.23601960       0.05421522       0.05010914       0.04904733       0.04714225       0.04355552       0.04247991       0.04140822       0.04072654       0.04004564       0.03741839       0.03470098       0.03268820       0.01419067       0.01404433       0.01208814       0.01103875       0.01075849       0.00716403       0.00552518       0.00549984       0.00444213       0.00417657       0.00375555       0.00365592       0.00000000       0.00000000       0.00000000       0.00000000       0.08408845       0.05991592       0.05751025       0.04891465       0.04357802       0.04001488       0.03190804       0.03041170       0.02854515       0.02566927       0.02388689       0.02224091       0.02066470       0.01984080       0.01916543       0.01776379       0.01706977       0.01562731       0.01362055       0.01235157       0.01091163       0.00989890       0.00930354       0.00846276       0.00730815       0.00671169       0.00612886       0.00000000       0.00000000       0.00000000       0.00000000
Si       5.44565000      -0.08948650      10.97810000      -1.35549000      -1.11826000      -1.58989000       0.29060334       0.23766246       0.23691997       0.23479809       0.05818583       0.05523764       0.05473523       0.04862144       0.04469073       0.04194743       0.03971953       0.03955876       0.03697389       0.03600419       0.03578889       0.03545611       0.01419067       0.01390413       0.01133592       0.01067946       0.01010367       0.00741608       0.00737252       0.00653164       0.00623149       0.00427042       0.00343556       0.00312672       0.00000000       0.00000000       0.00000000       0.00000000       0.08480660       0.05957416       0.05660270       0.04892356       0.04497693       0.04050320       0.03279187       0.03065267       0.02868737       0.02578097       0.02407384       0.02281439       0.02140126       0.02019526       0.01906391       0.01815884       0.01729678       0.01580795       0.01388796       0.01257411       0.01126745       0.01021154       0.00946945       0.00868521       0.00801348       0.00687196       0.00566627       0.00000000       0.00000000       0.00000000       0.00000000
Si       8.12662000       2.64359000      11.01610000       1.51063000       0.57010700      -0.84553600       0.27374022       0.26714081       0.24075217       0.22856938       0.05856812       0.05484102       0.05481523       0.04829254       0.04469073       0.04424003       0.04195611       0.04097714       0.03780132       0.03395970       0.03248759       0.02694007       0.01405314       0.01294919       0.01085541       0.00892934       0.00822415       0.00760748       0.00746190       0.00725221       0.00719222       0.00512457       0.00415738       0.00123469       0.00000000       0.00000000       0.00000000       0.00000000       0.08434081       0.06015401       0.05641563       0.04893022       0.04366396       0.04002246       0.03216100       0.03000025       0.02776205       0.02619619       0.02382771       0.02244666       0.02095398       0.01980656       0.01885967       0.01751741       0.01661218       0.01504536       0.01369327       0.01194579       0.01098831       0.01022279       0.00930787       0.00863620       0.00770802       0.00694417       0.00456360       0.00000000       0.00000000       0.00000000       0.00000000
Si       5.35318000       2.64950000       2.61184000       1.57006000       1.05132000       1.11837000       0.27381218       0.26202798       0.25290230       0.21986907       0.05876788       0.05481523       0.05473523       0.04798736       0.04115861       0.04109936       0.03829487       0.03728171       0.03725377       0.03710021       0.03502918       0.03464323       0.01494811       0.01308647       0.01020601       0.01008974       0.00934300       0.00912893       0.00666909       0.00618027       0.00591321       0.00404494       0.00281785       0.00217090       0.00000000       0.00000000       0.00000000       0.00000000       0.08460994       0.05962071       0.05616506       0.04906309       0.04398245       0.03965583       0.03206408       0.03030077       0.02807925       0.02549713       0.02349892       0.02261529       0.02079211       0.01951006       0.01891098       0.01754942       0.01668012       0.01517355       0.01387925       0.01255237       0.01087667       0.00979927       0.00893397       0.00833246       0.00748351       0.00649509       0.00518609       0.00000000       0.00000000       0.00000000       0.00000000
Si       8.15455000      -0.15044200       2.58780000       0.79004400       2.29176000       1.05149000       0.27879420       0.27318163       0.26035192       0.22945805       0.06184806       0.05899227       0.05818583       0.05484102       0.04872616       0.04862581       0.04568474       0.03684150       0.03544960       0.03502918       0.03225085       0.02651484       0.01716721       0.01603552       0.01335658       0.01119402       0.01068566       0.00812189       0.00716403       0.00712104       0.00664072       0.00196938       0.00177812       0.00105871       0.00000000       0.00000000       0.00000000       0.00000000       0.08659343       0.06133173       0.05846620       0.05066439       0.04632747       0.04087369       0.03334534       0.03161653       0.02964351       0.02686066       0.02452732       0.02302845       0.02162657       0.02079326       0.01990038       0.01826449       0.01678744       0.01538034       0.01438382       0.01307762       0.01162780       0.01042849       0.00922436       0.00832476       0.00627950       0.00533009       0.00389575       0.00000000       0.00000000       0.00000000       0.00000000
Si       6.75569000       1.23545000       1.32130000       0.32518500       0.81042200       1.52959000       0.29060334       0.27374022       0.26035192       0.25290230       0.05162448       0.05143425       0.05070117       0.05063756       0.05010914       0.04885324       0.04248968       0.04113542       0.04012986       0.03250721       0.02973230       0.02335459       0.01493623       0.01071673       0.00889015       0.00839318       0.00834866       0.00830531       0.00754903       0.00627207       0.00523136       0.00487707       0.00387443       0.00268697       0.00000000       0.00000000       0.00000000       0.00000000       0.08495011       0.06139662       0.05821528       0.04978521       0.04421888       0.03909675       0.03187970       0.02993553       0.02801706       0.02543975       0.02348771       0.02199668       0.02100454       0.02005011       0.01855201       0.01723190       0.01570994       0.01443126       0.01337918       0.01196213       0.01060745       0.00977418       0.00898788       0.00816094       0.00764512       0.00670507       0.00600064       0.00000000       0.00000000       0.00000000       0.00000000
Si       9.57596000       4.27904000       1.33331000      -2.01071000      -1.23428000       0.42431900       0.26974134       0.26046541       0.23300705       0.22856938       0.05654137       0.05582035       0.05547963       0.05287942       0.05234006       0.04629173       0.04448082       0.03945322       0.03128150       0.02902366       0.02753330       0.02335459       0.01917928       0.01683648       0.01460896       0.01131068       0.00887732       0.00883472       0.00826952       0.00555389       0.00406134       0.00281785       0.00279240       0.00105871       0.00000000       0.00000000       0.00000000       0.00000000       0.08358564       0.05894643       0.05615343       0.04962946       0.04420152       0.03887748       0.03234880       0.03024856       0.02791815       0.02598800       0.02367441       0.02227201       0.02085714       0.02004527       0.01911748       0.01755427       0.01628155       0.01502688       0.01382182       0.01257426       0.01117528       0.01004941       0.00886021       0.00786551       0.00668692       0.00561784       0.00423790       0.00000000       0.00000000       0.00000000       0.00000000
Si       6.70667000       4.08295000       4.18891000      -0.09850140      -0.36613000      -2.93135000       0.28174618       0.27161372       0.23192151       0.21986907       0.05910245       0.04872184       0.04799288       0.04763713       0.04714225       0.04527009       0.04173238       0.04099240       0.04095120       0.03164731       0.02973230       0.02902366       0.01203777       0.01025503       0.01019562       0.00832097       0.00767202       0.00760748       0.00736970       0.00728411       0.00683155       0.00669789       0.00254444       0.00196938       0.00000000       0.00000000       0.00000000       0.00000000       0.08332442       0.05870944       0.05534189       0.04792940       0.04346128       0.03925352       0.03159131       0.02939876       0.02755405       0.02518933       0.02329208       0.02173101       0.02039286       0.01961474       0.01827517       0.01678054       0.01566562       0.01466996       0.01326229       0.01199378       0.01063460       0.00957239       0.00895225       0.00825832       0.00772352       0.00662900       0.00493815       0.00000000       0.00000000       0.00000000       0.00000000
Si       9.45267000       1.34718000       4.07680000      -1.07004000       0.43298500      -0.49803500       0.26226283       0.24767223       0.23710879       0.22945805       0.06371337       0.05248189       0.04945007       0.04811159       0.04461516       0.04436467       0.04389477       0.04278202       0.04248968       0.04183885       0.04095120       0.03128150       0.01405314       0.01388640       0.00966860       0.00819852       0.00805342       0.00758252       0.00687370       0.00666909       0.00651175       0.00649177       0.00634831       0.00317280       0.00000000       0.00000000       0.00000000       0.00000000       0.08594989       0.05967013       0.05691438       0.04968935       0.04568989       0.04167589       0.03374773       0.03149744       0.02861046       0.02614204       0.02496402       0.02343630       0.02185363       0.02057845       0.01977176       0.01849451       0.01714230       0.01537603       0.01399414       0.01280414       0.01144593       0.01045238       0.00949876       0.00884391       0.00837450       0.00752029       0.00637027       0.00000000       0.00000000       0.00000000       0.00000000
Si      10.94240000       5.43892000      -0.11138100       0.08040810       0.75690800      -0.39395600       0.26974134       0.25398679       0.25173370       0.24701609       0.05423878       0.05031418       0.05003923       0.04982983       0.04762958       0.04406965       0.04303547       0.04240378       0.04122606       0.04047647       0.03395970       0.02738950       0.01590481       0.01038742       0.00973076       0.00961270       0.00932269       0.00902933       0.00753175       0.00719868       0.00709443       0.00442222       0.00360312       0.00352635       0.00000000       0.00000000       0.00000000       0.00000000       0.08511455       0.06062994       0.05761368       0.04964568       0.04417828       0.04083644       0.03268051       0.03060526       0.02828631       0.02619381       0.02469317       0.02261089       0.02114130       0.02028261       0.01937791       0.01782769       0.01682077       0.01545486       0.01418007       0.01234451       0.01118576       0.01012333       0.00956351       0.00891224       0.00838927       0.00719011       0.00581119       0.00000000       0.00000000       0.00000000       0.00000000
Si       2.80475000       8.07568000      -0.07373260      -1.46277000       1.15490000       0.15865000       0.26298107       0.25828558       0.25464394       0.23174417       0.06117916       0.05578338       0.05025341       0.04862144       0.04762958       0.04696966       0.04193154       0.04129549       0.03712322       0.03505540       0.03372736       0.02711247       0.01373202       0.01366478       0.01124095       0.00967919       0.00908121       0.00867465       0.00840034       0.00741727       0.00627246       0.00425941       0.00252243       0.00134192       0.00000000       0.00000000       0.00000000       0.00000000       0.08535840       0.05935981       0.05725919       0.04926859       0.04465852       0.04023186       0.03245069       0.03009202       0.02832513       0.02605578       0.02424161       0.02266242       0.02102767       0.02006608       0.01893394       0.01761322       0.01683871       0.01546709       0.01386719       0.01215113       0.01107293       0.01017789       0.00933601       0.00848195       0.00773003       0.00595276       0.00456075       0.00000000       0.00000000       0.00000000       0.00000000
Si       0.02877370       8.10925000       2.70889000      -0.96625500       1.47584000       1.87136000       0.29569565       0.26277100       0.24782107       0.24260113       0.05670594       0.05088355       0.04994357       0.04872616       0.04574068       0.04444925       0.04222228       0.04047647       0.03967541       0.03797291       0.03712322       0.03020342       0.01721946       0.01683648       0.01614140       0.01120998       0.01021977       0.00982304       0.00959130       0.00922563       0.00768424       0.00692350       0.00634831       0.00624137       0.00000000       0.00000000       0.00000000       0.00000000       0.08903169       0.06324654       0.05976802       0.05188780       0.04674916       0.04202160       0.03417107       0.03188068       0.03004869       0.02743238       0.02562751       0.02400269       0.02250169       0.02156813       0.02071365       0.01947096       0.01840094       0.01734116       0.01614219       0.01473561       0.01350109       0.01212524       0.01140509       0.01046629       0.00963727       0.00873438       0.00808117       0.00000000       0.00000000       0.00000000       0.00000000
Si       2.67570000       5.45185000       2.61559000      -1.30969000       1.54347000       0.87560400       0.28956021       0.25316154       0.25125017       0.23190901       0.05517951       0.05088355       0.05025341       0.04982983       0.04362038       0.04191083       0.04109936       0.04026538       0.03946663       0.03826496       0.03661614       0.03368155       0.01495768       0.01491115       0.01460896       0.01353872       0.01001328       0.00968087       0.00705135       0.00683155       0.00549984       0.00493599       0.00392603       0.00231406       0.00000000       0.00000000       0.00000000       0.00000000       0.08626940       0.06099435       0.05744388       0.05018239       0.04433577       0.04136005       0.03303447       0.03153476       0.02901619       0.02612462       0.02449274       0.02302422       0.02142539       0.02032587       0.01963105       0.01908822       0.01792074       0.01628573       0.01467591       0.01295178       0.01200495       0.01105942       0.00990051       0.00908020       0.00807550       0.00680914       0.00567065       0.00000000       0.00000000       0.00000000       0.00000000
Si       1.24544000       6.95785000       1.28337000       2.35144000      -2.62636000      -0.77051400       0.29569565       0.25828558       0.25398679       0.23190901       0.06905639       0.05939138       0.05910753       0.05654137       0.05118745       0.04480064       0.04209227       0.03768304       0.03714982       0.03555008       0.03525614       0.02813796       0.02562589       0.01400680       0.00934091       0.00858987       0.00619693       0.00612537       0.00578145       0.00516355       0.00500832       0.00420747       0.00306120       0.00274625       0.00000000       0.00000000       0.00000000       0.00000000       0.08605998       0.06113639       0.05920601       0.05121495       0.04599915       0.04126142       0.03430881       0.03196114       0.02862274       0.02665587       0.02449577       0.02374618       0.02245000       0.02075783       0.01945138       0.01806547       0.01675728       0.01525863       0.01334388       0.01157222       0.01050659       0.00959509       0.00849457       0.00778161       0.00707304       0.00669993       0.00559149       0.00000000       0.00000000       0.00000000       0.00000000
Si       3.93019000       9.43160000       1.50463000       0.87875400       1.11271000      -0.49678100       0.25464394       0.25367395       0.23859453       0.23479809       0.05910753       0.05868168       0.05421522       0.04585245       0.04071537       0.04012986       0.03898020       0.03763264       0.03430537       0.03288929       0.02910200       0.02797097       0.01935490       0.01614140       0.01495768       0.00936157       0.00934300       0.00886720       0.00664072       0.00635207       0.00627961       0.00588936       0.00500560       0.00058549       0.00000000       0.00000000       0.00000000       0.00000000       0.08259910       0.05872555       0.05641035       0.04887117       0.04293212       0.03886755       0.03207807       0.02960896       0.02766763       0.02565757       0.02361334       0.02202826       0.02119661       0.01973590       0.01880983       0.01781665       0.01645041       0.01522967       0.01422919       0.01291547       0.01166415       0.01066698       0.00941965       0.00867672       0.00792055       0.00721194       0.00324890       0.00000000       0.00000000       0.00000000       0.00000000
Si       1.23730000       9.57965000       4.20128000       0.29128100      -0.05515850      -0.87373900       0.25846227       0.25624502       0.25280435       0.24260113       0.06656861       0.06499002       0.05984501       0.05248189       0.04977074       0.04585245       0.04357079       0.04089993       0.04072654       0.03768304       0.03441784       0.03107989       0.02065258       0.01188263       0.01136609       0.01119402       0.00909334       0.00870819       0.00732992       0.00672465       0.00472007       0.00392603       0.00325848       0.00134192       0.00000000       0.00000000       0.00000000       0.00000000       0.08752977       0.06152663       0.05920350       0.05081543       0.04601250       0.04300328       0.03473818       0.03220917       0.02964957       0.02733154       0.02560926       0.02382709       0.02240082       0.02111413       0.02005412       0.01865006       0.01674491       0.01597475       0.01493454       0.01261150       0.01132543       0.01032270       0.00937219       0.00828737       0.00731798       0.00636231       0.00489134       0.00000000       0.00000000       0.00000000       0.00000000
Si       4.05006000       6.78348000       4.03126000      -0.06230020       0.76593600      -0.31019500       0.26805404       0.25270791       0.25125017       0.24851024       0.06579211       0.05868168       0.05774086       0.04763713       0.04173845       0.04092692       0.03714982       0.03656626       0.03441784       0.03352459       0.03278021       0.02907665       0.01465461       0.01204931       0.01021977       0.00867465       0.00800060       0.00741547       0.00731274       0.00683566       0.00618027       0.00569109       0.00474437       0.00352613       0.00000000       0.00000000       0.00000000       0.00000000       0.08455485       0.06009172       0.05772727       0.04952225       0.04345645       0.03910118       0.03245750       0.03012127       0.02775682       0.02525005       0.02348618       0.02229104       0.02117453       0.01961023       0.01831703       0.01753451       0.01638687       0.01489667       0.01351490       0.01216984       0.01100825       0.01016039       0.00962592       0.00861592       0.00804218       0.00734540       0.00620261       0.00000000       0.00000000       0.00000000       0.00000000
Si       5.39114000       5.43801000      -0.13474700       1.96933000      -1.16233000       2.97561000       0.30743293       0.25951247       0.24904556       0.23181681       0.07473627       0.05578338       0.04975680       0.04939168       0.04769222       0.04749691       0.04429130       0.04191083       0.03829487       0.03780132       0.03183933       0.02764833       0.01414468       0.01233168       0.01157344       0.01021261       0.00950217       0.00627961       0.00569109       0.00555389       0.00420747       0.00387443       0.00381492       0.00254444       0.00000000       0.00000000       0.00000000       0.00000000       0.08698106       0.06090396       0.05808061       0.05025154       0.04506607       0.04087559       0.03385512       0.03096359       0.02860547       0.02644880       0.02451423       0.02264609       0.02126166       0.02020901       0.01931014       0.01802701       0.01623084       0.01521756       0.01318586       0.01164654       0.01072178       0.00986135       0.00889319       0.00787872       0.00732005       0.00655599       0.00549897       0.00000000       0.00000000       0.00000000       0.00000000