64
Lattice="10.862 0.0 0.0 0.0 10.862 0.0 0.0 0.0 10.862" Properties=species:S:1:pos:R:3:masses:R:1:atomic-forces:R:3 potential-energy=-9868.133857880746 cauchy-stress="_JSON [[0.5005984988252798, 0.14990005004494866, -0.7809807317847226], [0.14990005004494866, 0.4102759956578624, 0.9094034439429564], [-0.7809807317847226, 0.9094034439429564, 0.4738253789938956]]" _metadata="_JSON {\"data_source\": \"AiiDA pk<1692>\", \"storage_id\": \"92c73f12ce3d4985a575b2ee1c382c33\"}" pbc="T T T"
Si      10.87020000      -0.10323000      10.87150000      28.08500000      -0.70453908       0.54032555       0.47183727
Si       2.65429000       2.76148000       0.12119900      28.08500000      -0.22903284      -0.15589421      -1.11510645
Si       0.04534280       2.54229000       2.71367000      28.08500000      -0.15072681       1.14401131      -0.26998228
Si       2.75605000      10.79160000       2.77087000      28.08500000       0.38417551       1.09356523      -0.33992709
Si       1.37964000       1.19201000       1.34585000      28.08500000       0.33463010       0.46719746       0.43303521
Si       4.21562000       4.01445000       1.29038000      28.08500000      -1.19191893       0.17819467       1.16043268
Si       1.31004000       4.07703000       4.16101000      28.08500000       0.70643886      -1.08528474      -0.45845777
Si       4.02837000       1.46524000       4.07590000      28.08500000       0.10513909      -0.60806692      -0.13500271
Si       5.42942000       0.09102000      10.73210000      28.08500000      -0.10847510       0.52501951       1.25648267
Si       8.03093000       2.73118000      10.74770000      28.08500000      -0.49698961       0.10340668       0.38957483
Si       5.47128000       2.80456000       2.83053000      28.08500000      -0.89895278      -1.19971297      -1.41819786
Si       8.24912000       0.04335200       2.70033000      28.08500000      -2.27468784      -1.61300314      -0.57280784
Si       6.75400000       1.36181000       1.51703000      28.08500000       0.14894349       0.28601594      -1.57538662
Si       9.50149000       3.95075000       1.23577000      28.08500000       0.50042691      -0.03224806       1.07806122
Si       6.75336000       4.03738000       4.08794000      28.08500000       1.48311512       1.03017751       2.02411636
Si       9.54472000       1.15957000       3.99949000      28.08500000       1.64324548       1.18927558       1.04033954
Si      10.80890000       5.58420000       0.15166200      28.08500000      -0.43355638      -0.23034281      -0.37565051
Si       2.70755000       8.17841000       0.08917260      28.08500000       0.48610047       0.88533493       0.05442357
Si      -0.10318000       8.21411000       2.71054000      28.08500000       1.12248937      -0.23707268      -1.02979082
Si       2.74945000       5.35206000       2.75142000      28.08500000       0.01307612      -0.71109333      -0.40130009
Si       1.47140000       6.77984000       1.42370000      28.08500000      -1.05669022       0.32318432       0.61058171
Si       4.19122000       9.62619000       1.41131000      28.08500000      -0.23725394      -0.81219091      -1.15849356
Si       1.50346000       9.36500000       4.00708000      28.08500000      -0.65587221      -0.57942868       0.34740925
Si       4.00257000       6.79022000       4.03090000      28.08500000       1.34453292      -0.12804916      -1.25475180
Si       5.42106000       5.45370000       0.03575400      28.08500000       0.29504411       1.10975161      -0.99434842
Si       7.96258000       8.31024000      10.76690000      28.08500000      -0.09648604      -1.48175064      -0.20583043
Si       5.47855000       8.10387000       2.60788000      28.08500000       0.16146296       0.12932572       1.15957651
Si       8.39446000       5.21711000       2.91198000      28.08500000      -1.28875361       0.70120076      -1.52426820
Si       6.88458000       6.69291000       1.40451000      28.08500000       0.57807371      -0.05370109      -0.03052748
Si       9.34496000       9.50044000       1.28085000      28.08500000       1.10802769      -0.02730923       0.13546577
Si       6.86456000       9.45068000       4.11690000      28.08500000      -1.17178102       1.00797064      -1.24964173
Si       9.50010000       6.88569000       4.06405000      28.08500000       1.73058149      -2.16007809      -0.24777027
Si      10.96790000      10.66950000       5.27145000      28.08500000      -0.01278275       1.05105667       0.73521542
Si       2.76028000       2.63165000       5.58554000      28.08500000      -1.07445062       1.19810629      -0.59717598
Si       0.10105000       2.66913000       8.16615000      28.08500000       0.07143579       0.50267663       0.79351621
Si       2.69709000      -0.08724870       8.03639000      28.08500000      -0.35661457       0.29123039       1.45332658
Si       1.30345000       1.25732000       6.75781000      28.08500000       0.12099380      -0.18875522      -0.19630347
Si       3.95678000       4.21103000       6.81722000      28.08500000       0.94796572      -1.29124655       0.14943200
Si       1.23754000       4.27464000       9.63266000      28.08500000       1.04886943      -1.37579239      -0.38557599
Si       4.01853000       1.45604000       9.45532000      28.08500000      -1.27461640      -0.88239668       0.55367549
Si       5.33716000      10.90040000       5.38473000      28.08500000       0.65662271      -0.83480530       0.19394525
Si       8.32965000       2.55000000       5.35997000      28.08500000      -1.27302129       1.26512029       0.55533693
Si       5.37757000       2.64707000       8.13775000      28.08500000       0.25931349       1.68467135      -1.23269354
Si       8.19791000       0.12814400       7.98009000      28.08500000      -0.13597896       0.66040532       1.61850556
Si       6.76003000       1.39147000       6.72080000      28.08500000      -0.07478619       0.12878553      -0.42469301
Si       9.66889000       3.99317000       6.78298000      28.08500000      -1.32164625       0.21109836      -0.07976333
Si       6.63240000       4.21336000       9.32463000      28.08500000       0.16270866      -1.39524562       1.36475002
Si       9.60313000       1.38554000       9.60945000      28.08500000      -0.81738865      -0.10464621      -1.09526705
Si      10.92140000       5.48930000       5.49379000      28.08500000      -0.75267733       0.21557980      -0.27985532
Si       2.74299000       7.95297000       5.40451000      28.08500000      -1.87058679       0.48601151       1.45995154
Si      10.70230000       8.22152000       8.24558000      28.08500000       0.19115226       0.13879560      -0.65790904
Si       2.78497000       5.48364000       8.29552000      28.08500000      -1.02318797       0.47486141       0.35895788
Si       1.21246000       6.74470000       7.03671000      28.08500000       1.27305189       0.63040697      -0.81835153
Si       3.96453000       9.40412000       6.71349000      28.08500000       0.95605158       0.46650712      -0.42791538
Si       1.29859000       9.46417000       9.57799000      28.08500000       0.98351842      -0.16730914      -0.98336235
Si       4.09262000       7.01080000       9.50628000      28.08500000       0.18879842      -1.32733996       0.82825465
Si       5.29694000       5.52807000       5.43167000      28.08500000       1.46402905      -0.66822559       0.18049375
Si       8.23444000       8.11168000       5.29370000      28.08500000      -1.18532970       1.17803986       2.84411905
Si       5.43082000       8.21554000       8.09943000      28.08500000       0.46894813       0.10033524      -0.60589716
Si       8.16110000       5.39666000       8.18586000      28.08500000       0.53044454      -0.06593517      -1.62531950
Si       6.84358000       6.81310000       6.77085000      28.08500000      -0.12582387      -0.07723285      -0.18656541
Si       9.48978000       9.66634000       6.72781000      28.08500000       0.49729814      -2.12080732      -0.56866759
Si       6.73032000       9.71606000       9.30406000      28.08500000       0.57998430      -0.59130281       0.26426029
Si       9.41463000       6.78395000       9.51442000      28.08500000      -0.25208226       0.80862170       1.00748059
