64
Lattice="10.862 0.0 0.0 0.0 10.862 0.0 0.0 0.0 10.862" Properties=species:S:1:pos:R:3:atomic_forces_forces:R:3:ltau_forces_uq_score:R:1 co-id=CO_331235109413406734 energy_energy=-263.87003 energy_per_atom=F ltau_forces_uq_bins="_JSON [9.826158705261703e-06, 1.1027062170109953e-05, 1.2374733988202081e-05, 1.388711144604322e-05, 1.558432403465697e-05, 1.7488961369744564e-05, 1.9626373855691547e-05, 2.2025010095210678e-05, 2.4716795535485803e-05, 2.7737557390534585e-05, 3.1127501495435235e-05, 3.4931747439266745e-05, 3.92009290992939e-05, 4.399186856940476e-05, 4.9368332452677637e-05, 5.5401880584202616e-05, 6.217281848051923e-05, 6.977126619261002e-05, 7.82983577887071e-05, 8.786758743182653e-05, 9.860631996809534e-05, 0.00011065748613155361, 0.00012418148492831835, 0.00013935831852052977, 0.0001563899880250244, 0.00017550318211441527, 0.00019695229420541328, 0.00022102280839265498, 0.00024803509919425754, 0.0002783486956830725, 0.0003123670667585158, 0.00035054299125013993, 0.0003933845843281282, 0.00044146206043123326, 0.0004954153227255848, 0.0005559624801088134, 0.000623909405119375, 0.000700160459965258, 0.0007857305334337209, 0.0008817585488913106, 0.000989522623163398, 0.0011104570780553508, 0.001246171530935888, 0.0013984723184750493, 0.0015693865386831691, 0.0017611890312463712, 0.0019764326552623285, 0.0022179822673679007, 0.0024890528525018216, 0.0027932523148165534, 0.0031346294982791336, 0.003517728076107228, 0.003947647026299737, 0.004430108498181178, 0.0049715339732521865, 0.005579129734034302, 0.00626098277848512, 0.007026168456588584, 0.007884871261745434, 0.008848520384677058, 0.009929941834042498, 0.0111435291484686, 0.012505434972141823, 0.014033786043800957, 0.015748924460598036, 0.017673678428009317, 0.019833666099432202, 0.022257636549522425, 0.024977852419569537, 0.028030519327856575, 0.03145626776038425, 0.03530069385584423, 0.03961496628259934, 0.044456507285101664, 0.04988975696436252, 0.055987030964919623, 0.06282948298397104, 0.07050818491351256, 0.07912533899198845, 0.08879563809899231, 0.09964779229831235, 0.11182624194735377, 0.12549308017413968, 0.1408302103097339, 0.15804176699115657, 0.1773568331592601, 0.19903248911436056, 0.22335723421203718, 0.250654826741305, 0.2812885930932962, 0.31566626357475674, 0.3542453992302428, 0.3975394819030924, 0.44612474859288853, 0.5006478610735438, 0.5618345128533615, 0.6304990880342648, 0.7075555006279824, 0.794029358598705, 0.8910716145335489, 0.9999738846290095]" ltau_forces_uq_num_nearest_neighbors=1 ltau_forces_uq_index_type=IndexFlatL2 ltau_forces_uq_index_args=None pbc="T T T"
Si      11.00860000      -0.18318200      10.95320000      -0.46121200       1.64634000      -0.65899600       0.50193643
Si       2.75251000       2.69713000      -0.04369190      -0.80566600       0.96474700       0.54829500       0.51118125
Si      -0.03540900       2.90940000       2.55964000       0.23251200      -1.52498000       0.91817800       0.49156139
Si       2.75523000      10.90980000       2.80034000      -1.92790000       0.54913100      -0.83952600       0.54136434
Si       1.35504000       1.40639000       1.34641000       0.51162000      -0.42547300       0.44264700       0.52214117
Si       4.11021000       3.99425000       1.45168000       0.35885700       0.93493600      -1.46988000       0.54190064
Si       1.32444000       4.16837000       3.97543000      -0.08346560      -0.52113100      -0.65179000       0.46400969
Si       3.88953000       1.35734000       4.19899000       2.13608000       0.45369600       0.85960800       0.45099422
Si       5.38381000       0.06838430      10.93820000       0.20608000      -0.50455700       1.14906000       0.49419998
Si       8.17948000       2.66672000      10.84190000      -0.53015300       1.01664000      -0.43025500       0.45571646
Si       5.37067000       2.68529000       2.89864000      -0.80945300       0.85797900       0.29313500       0.48219316
Si       7.99640000       0.06049160       2.78319000       0.39305900       1.44601000      -1.33774000       0.47514917
Si       6.65027000       1.64549000       1.37730000       1.02608000      -3.33839000       0.09344360       0.51206960
Si       9.39034000       4.13680000       1.27785000      -0.08874610       0.79772700      -0.16028700       0.49295888
Si       6.78850000       4.08667000       4.09481000       0.71165000      -0.99849900       0.35343800       0.49442089
Si       9.54605000       1.45297000       4.01673000      -0.49888600      -0.26358200      -0.09413190       0.48130890
Si      10.63340000       5.54645000      -0.12831600       1.54833000      -0.39287700      -0.21286200       0.47448108
Si       2.92452000       8.13570000       0.06217200      -1.72067000       0.57987500      -0.26968100       0.49646309
Si       0.01471430       8.12860000       2.74983000      -1.21906000       1.04250000       0.17471400       0.53356921
Si       2.71915000       5.44838000       2.63142000      -1.08254000       0.50442200      -0.90448200       0.52389915
Si       1.24512000       6.89692000       1.21161000       1.09620000      -1.27307000       0.53891000       0.50358999
Si       4.04158000       9.56108000       1.55545000       1.76795000      -0.91835100      -1.28365000       0.52232115
Si       1.45612000       9.52993000       4.08831000      -0.88257900      -0.80105200       0.06171860       0.47323332
Si       4.10490000       6.68607000       3.97026000      -0.77241500      -1.22642000       1.81441000       0.50358999
Si       5.55331000       5.49933000       0.04094180       0.10747000      -2.30747000       0.65181300       0.49564396
Si       8.23813000       8.12656000      10.70160000      -1.15117000       1.68997000       1.29222000       0.50896856
Si       5.37023000       7.98130000       2.79049000       1.33484000       2.26581000      -2.26131000       0.46572864
Si       8.07152000       5.48892000       2.68478000       0.79276800      -0.78752300       0.76124700       0.49442089
Si       6.90315000       6.88493000       1.34555000      -0.96920500       0.06541040      -0.42556100       0.51486722
Si       9.39963000       9.62921000       1.37771000       0.62154400      -2.12751000       0.39257000       0.49755780
Si       6.68265000       9.45394000       3.98776000       1.71784000      -0.85620300       2.26604000       0.49804450
Si       9.45471000       6.71489000       4.15474000       0.48618900       0.83927100      -1.58659000       0.51545514
Si      10.90510000      10.93390000       5.38432000      -0.52497800      -0.57282000       0.45580600       0.47267580
Si       2.52117000       2.83123000       5.42443000       1.10595000      -0.42760000       1.23458000       0.50821189
Si       0.05806350       2.57699000       8.32115000      -0.66965800       1.55540000      -1.58513000       0.51512581
Si       2.72671000       0.04406590       8.15366000      -0.50144400       0.33986300      -0.08915280       0.48821964
Si       1.29035000       1.39592000       6.87107000       1.00455000      -0.56697900      -0.99815100       0.53346504
Si       4.04968000       4.08105000       6.87056000      -0.85768600      -0.34176100      -0.65858600       0.51545514
Si       1.29288000       4.10888000       9.45046000       0.60649000       0.43027000       1.99894000       0.48347938
Si       4.04895000       1.29027000       9.55524000       0.29642600       0.91647200      -0.72538400       0.55420439
Si       5.50078000      10.82680000       5.44775000      -3.15501000      -0.70704300      -0.99773500       0.49159590
Si       8.14007000       2.63068000       5.53000000      -0.34605500       0.45254100      -0.94530200       0.54735114
Si       5.37005000       2.68379000       8.16182000      -0.30360400      -0.55773400       0.12306200       0.46829935
Si       8.06158000       0.06207040       8.29689000       0.99780600      -0.48745200      -1.43957000       0.55276573
Si       6.62542000       1.27917000       6.78232000       2.51522000       1.29779000       1.56363000       0.44880475
Si       9.63021000       3.91835000       6.80076000       0.72294400      -1.63854000      -0.58484100       0.48932789
Si       6.79147000       4.01576000       9.41845000       0.94982800       0.57881600       0.54002300       0.44113304
Si       9.64342000       1.30227000       9.63233000      -1.17190000      -1.52347000       0.54990300       0.44259870
Si      10.77550000       5.29372000       5.32823000       1.32657000       1.16375000       1.40295000       0.54305867
Si       2.83141000       8.04738000       5.33514000       0.13194600       1.62079000      -0.02423140       0.50645906
Si      11.06520000       8.19536000       7.96393000      -0.53627900      -0.75256500       0.57837800       0.47894697
Si       2.80881000       5.47677000       8.30809000      -1.28063000      -0.28481500      -2.28270000       0.48718492
Si       1.49989000       6.72289000       6.57147000      -1.14019000      -1.18453000       1.83743000       0.49144152
Si       3.98732000       9.56507000       6.82377000       1.68151000      -1.60045000      -0.69540900       0.48411137
Si       1.52314000       9.47582000       9.47149000      -0.18172200      -0.90994500       0.60942300       0.43934664
Si       4.18167000       6.71737000       9.60980000      -0.06345040       1.15769000      -0.10665900       0.46078942
Si       5.38427000       5.31073000       5.40193000       0.15448000       1.34027000       0.35100500       0.46829935
Si       8.28513000       8.12936000       5.54741000      -2.34990000       0.59580300      -2.28441000       0.44999182
Si       5.39908000       8.12538000       8.23622000       0.27897400      -0.05401700      -1.93928000       0.52956482
Si       8.30747000       5.21096000       7.94442000      -2.86631000       2.48792000       1.51086000       0.44931958
Si       6.81523000       6.75264000       6.67385000      -0.49333000      -0.65293700       1.81260000       0.55468560
Si       9.52411000       9.52390000       6.80601000       0.50099800       1.89393000       0.73883500       0.52857549
Si       6.68071000       9.53750000       9.55098000       0.80619000      -0.25610500       0.56755000       0.45582529
Si       9.44365000       6.87850000       9.22167000       1.31630000      -0.69991000      -0.54312300       0.47838002
