64
Lattice="10.862 0.0 0.0 0.0 10.862 0.0 0.0 0.0 10.862" Properties=species:S:1:pos:R:3:atomic_forces_forces:R:3:ltau_forces_uq_score:R:1 co-id=CO_981596157149156613 energy_energy=-261.93944 energy_per_atom=F ltau_forces_uq_bins="_JSON [9.826158705261703e-06, 1.1027062170109953e-05, 1.2374733988202081e-05, 1.388711144604322e-05, 1.558432403465697e-05, 1.7488961369744564e-05, 1.9626373855691547e-05, 2.2025010095210678e-05, 2.4716795535485803e-05, 2.7737557390534585e-05, 3.1127501495435235e-05, 3.4931747439266745e-05, 3.92009290992939e-05, 4.399186856940476e-05, 4.9368332452677637e-05, 5.5401880584202616e-05, 6.217281848051923e-05, 6.977126619261002e-05, 7.82983577887071e-05, 8.786758743182653e-05, 9.860631996809534e-05, 0.00011065748613155361, 0.00012418148492831835, 0.00013935831852052977, 0.0001563899880250244, 0.00017550318211441527, 0.00019695229420541328, 0.00022102280839265498, 0.00024803509919425754, 0.0002783486956830725, 0.0003123670667585158, 0.00035054299125013993, 0.0003933845843281282, 0.00044146206043123326, 0.0004954153227255848, 0.0005559624801088134, 0.000623909405119375, 0.000700160459965258, 0.0007857305334337209, 0.0008817585488913106, 0.000989522623163398, 0.0011104570780553508, 0.001246171530935888, 0.0013984723184750493, 0.0015693865386831691, 0.0017611890312463712, 0.0019764326552623285, 0.0022179822673679007, 0.0024890528525018216, 0.0027932523148165534, 0.0031346294982791336, 0.003517728076107228, 0.003947647026299737, 0.004430108498181178, 0.0049715339732521865, 0.005579129734034302, 0.00626098277848512, 0.007026168456588584, 0.007884871261745434, 0.008848520384677058, 0.009929941834042498, 0.0111435291484686, 0.012505434972141823, 0.014033786043800957, 0.015748924460598036, 0.017673678428009317, 0.019833666099432202, 0.022257636549522425, 0.024977852419569537, 0.028030519327856575, 0.03145626776038425, 0.03530069385584423, 0.03961496628259934, 0.044456507285101664, 0.04988975696436252, 0.055987030964919623, 0.06282948298397104, 0.07050818491351256, 0.07912533899198845, 0.08879563809899231, 0.09964779229831235, 0.11182624194735377, 0.12549308017413968, 0.1408302103097339, 0.15804176699115657, 0.1773568331592601, 0.19903248911436056, 0.22335723421203718, 0.250654826741305, 0.2812885930932962, 0.31566626357475674, 0.3542453992302428, 0.3975394819030924, 0.44612474859288853, 0.5006478610735438, 0.5618345128533615, 0.6304990880342648, 0.7075555006279824, 0.794029358598705, 0.8910716145335489, 0.9999738846290095]" ltau_forces_uq_num_nearest_neighbors=1 ltau_forces_uq_index_type=IndexFlatL2 ltau_forces_uq_index_args=None pbc="T T T"
Si      10.77670000       0.10462600      10.79190000       0.76239700      -0.54431600       0.85405300       0.48840642
Si       2.70277000       2.83598000       0.14581900      -0.72704000      -1.76650000      -0.79833100       0.47758770
Si      -0.14843600       2.72039000       2.61741000       0.51658000      -1.21464000      -0.12249600       0.49834941
Si       2.77288000      10.75920000       2.87709000       0.30542800       0.75483700      -0.99088100       0.52459668
Si       1.41892000       1.28983000       1.42459000      -0.80612400       0.35031600      -0.05456430       0.47844658
Si       4.12242000       4.09481000       1.32383000       0.53386600       2.07824000       0.10020300       0.50389242
Si       1.27934000       3.93149000       3.94479000       0.09310230       1.37053000       0.39592400       0.44119044
Si       4.02560000       1.40043000       4.17770000      -1.03492000       0.77715500       0.76329600       0.50389242
Si       5.27583000       0.17313800      10.85190000      -0.23483600      -1.24913000      -0.00815463       0.52458955
Si       8.08484000       2.73526000      10.90620000       0.75256100      -0.21793400       0.14416700       0.47741678
Si       5.36001000       2.85854000       2.82083000       1.24228000      -1.28825000       0.39923300       0.51118088
Si       8.07087000      -0.09064320       2.44669000       0.21543500       1.74603000       1.08126000       0.50883677
Si       6.60377000       1.43577000       1.24414000       1.01053000       0.70801000       2.26921000       0.51737002
Si       9.45764000       4.17078000       1.25684000      -0.74135700       0.06446940       1.44225000       0.49334764
Si       6.90314000       4.03857000       4.32926000      -1.22036000      -0.18580300      -2.31724000       0.46018595
Si       9.44727000       1.23865000       3.99271000       0.30909900      -0.09393970      -0.87389100       0.52716642
Si      10.75360000       5.63025000      -0.01245850      -0.46727300      -0.16403100      -1.87582000       0.43538436
Si       2.95422000       8.26278000       0.18953300      -0.96767500       0.03968670      -1.72261000       0.54910432
Si       0.05896400       8.00999000       2.63874000      -2.30114000       1.99212000       2.04735000       0.49813184
Si       2.52618000       5.43396000       2.52967000       1.70903000       0.23435600       1.09295000       0.52215505
Si       1.28312000       6.97890000       1.20170000       2.02135000      -1.90483000      -0.07233090       0.50845042
Si       4.35882000       9.52405000       1.60227000      -2.07169000       1.39001000      -1.75970000       0.45758208
Si       1.39612000       9.37479000       4.08373000      -1.17786000       0.67906400      -0.47137900       0.45571646
Si       4.19763000       6.68891000       4.01254000      -1.26478000       0.27093500      -1.43413000       0.47503982
Si       5.64324000       5.40564000      -0.13022500      -0.29474000      -0.25232000       2.40639000       0.52069698
Si       8.02977000       8.22082000      10.76820000       1.10180000       0.30872600      -0.69764900       0.48877403
Si       5.65467000       8.08458000       2.65616000       0.24038800      -0.97197800       2.11198000       0.50016288
Si       8.07169000       5.41989000       2.81656000       2.52428000      -1.73134000       0.71801300       0.49646309
Si       7.04224000       6.72495000       1.39306000      -2.63698000       0.70244100      -2.08577000       0.47966499
Si       9.52410000       9.44662000       1.23394000       0.27283600      -0.28260300       0.18091700       0.52297337
Si       6.85952000       9.60065000       4.01983000      -1.59283000      -0.49223000       1.01354000       0.48234896
Si       9.56097000       6.63143000       4.17184000      -0.09181660       1.16781000      -1.27213000       0.45654673
Si      10.95790000      10.91670000       5.40874000      -0.47861000      -1.38027000      -1.51645000       0.47135542
Si       2.47785000       2.78438000       5.59239000       1.78857000      -0.88011100      -1.56084000       0.49057391
Si       0.03804330       2.73224000       8.31949000       1.32483000      -2.03308000       0.10319400       0.52415923
Si       2.68360000      -0.23462700       8.18214000       0.50133000       1.49656000      -0.20264200       0.51486722
Si       1.36995000       1.21625000       6.86363000      -0.54458300       1.29088000       1.56590000       0.48882865
Si       3.86746000       4.21552000       6.80849000       1.97709000      -1.30285000       0.05239760       0.45427456
Si       1.30835000       4.10621000       9.67752000       0.60552700       1.82772000      -0.90010700       0.53962407
Si       3.87264000       1.42240000       9.51489000       0.25545200      -0.03809500      -0.63429600       0.52602451
Si       5.23784000      10.83160000       5.59119000       3.21120000       1.18220000      -2.39168000       0.50943817
Si       8.25019000       2.57509000       5.44733000       0.56842300       0.73754100       0.95660100       0.52477796
Si       5.34238000       2.74780000       8.13959000       0.07043150       0.42396400      -0.01841040       0.54052595
Si       8.14751000       0.08474780       8.03748000       1.05928000      -1.29655000       0.24190500       0.48765439
Si       6.80475000       1.40669000       6.76576000      -1.87015000      -0.52561900       0.14593600       0.45038874
Si       9.58487000       3.88111000       7.01122000      -0.77691700       1.71877000      -3.54183000       0.46803267
Si       6.96240000       3.99608000       9.47536000      -2.40143000       0.42716500      -1.45559000       0.51545514
Si       9.38495000       1.46194000       9.51222000       0.42693600      -0.69545200      -0.28551100       0.50361386
Si      10.94330000       5.28809000       5.46797000      -1.15402000      -1.25342000       0.45850300       0.47206314
Si       2.70250000       8.01821000       5.31506000       1.16731000      -0.60301800       1.05436000       0.48042557
Si      10.95660000       8.25407000       8.13863000      -0.63373200      -1.65656000      -1.75967000       0.45963833
Si       2.73560000       5.57106000       8.20608000      -1.21503000      -0.51288000       1.56984000       0.51186262
Si       1.32894000       6.72641000       6.73885000       0.70346400       1.15415000       0.78169400       0.48809747
Si       4.07434000       9.36291000       6.73580000      -1.03160000      -1.40730000       1.66082000       0.49526244
Si       1.26930000       9.48255000       9.56788000       1.90756000       0.15234900       1.74433000       0.45582529
Si       4.22856000       6.80492000       9.59937000      -0.56698900       1.07655000      -0.65355100       0.47267580
Si       5.44545000       5.39298000       5.46261000      -0.68848400      -0.21467200       0.73249800       0.51126612
Si       8.15449000       8.15425000       5.35358000       0.41339000      -0.88703600       0.53860400       0.54205814
Si       5.58396000       8.17413000       8.20014000      -1.06662000      -0.48726800      -0.81950800       0.47273667
Si       8.07338000       5.36528000       7.98941000       2.56661000      -0.46696600       2.05394000       0.51132150
Si       6.83350000       6.67645000       6.77791000      -1.04857000       2.66469000      -1.23824000       0.48899179
Si       9.67627000       9.43394000       6.61636000      -1.82843000       1.52577000       1.44432000       0.47084755
Si       6.67924000       9.76704000       9.50603000       1.05398000      -0.90390900      -0.26710200       0.55384196
Si       9.40237000       6.96767000       9.24065000      -0.27572400      -1.40816000       1.67695000       0.52477796
