64
Lattice="10.862 0.0 0.0 0.0 10.862 0.0 0.0 0.0 10.862" Properties=species:S:1:pos:R:3:atomic_forces_forces:R:3:ltau_forces_uq_score:R:1 co-id=CO_1333300455398473358 energy_energy=-264.18824 energy_per_atom=F ltau_forces_uq_bins="_JSON [9.826158705261703e-06, 1.1027062170109953e-05, 1.2374733988202081e-05, 1.388711144604322e-05, 1.558432403465697e-05, 1.7488961369744564e-05, 1.9626373855691547e-05, 2.2025010095210678e-05, 2.4716795535485803e-05, 2.7737557390534585e-05, 3.1127501495435235e-05, 3.4931747439266745e-05, 3.92009290992939e-05, 4.399186856940476e-05, 4.9368332452677637e-05, 5.5401880584202616e-05, 6.217281848051923e-05, 6.977126619261002e-05, 7.82983577887071e-05, 8.786758743182653e-05, 9.860631996809534e-05, 0.00011065748613155361, 0.00012418148492831835, 0.00013935831852052977, 0.0001563899880250244, 0.00017550318211441527, 0.00019695229420541328, 0.00022102280839265498, 0.00024803509919425754, 0.0002783486956830725, 0.0003123670667585158, 0.00035054299125013993, 0.0003933845843281282, 0.00044146206043123326, 0.0004954153227255848, 0.0005559624801088134, 0.000623909405119375, 0.000700160459965258, 0.0007857305334337209, 0.0008817585488913106, 0.000989522623163398, 0.0011104570780553508, 0.001246171530935888, 0.0013984723184750493, 0.0015693865386831691, 0.0017611890312463712, 0.0019764326552623285, 0.0022179822673679007, 0.0024890528525018216, 0.0027932523148165534, 0.0031346294982791336, 0.003517728076107228, 0.003947647026299737, 0.004430108498181178, 0.0049715339732521865, 0.005579129734034302, 0.00626098277848512, 0.007026168456588584, 0.007884871261745434, 0.008848520384677058, 0.009929941834042498, 0.0111435291484686, 0.012505434972141823, 0.014033786043800957, 0.015748924460598036, 0.017673678428009317, 0.019833666099432202, 0.022257636549522425, 0.024977852419569537, 0.028030519327856575, 0.03145626776038425, 0.03530069385584423, 0.03961496628259934, 0.044456507285101664, 0.04988975696436252, 0.055987030964919623, 0.06282948298397104, 0.07050818491351256, 0.07912533899198845, 0.08879563809899231, 0.09964779229831235, 0.11182624194735377, 0.12549308017413968, 0.1408302103097339, 0.15804176699115657, 0.1773568331592601, 0.19903248911436056, 0.22335723421203718, 0.250654826741305, 0.2812885930932962, 0.31566626357475674, 0.3542453992302428, 0.3975394819030924, 0.44612474859288853, 0.5006478610735438, 0.5618345128533615, 0.6304990880342648, 0.7075555006279824, 0.794029358598705, 0.8910716145335489, 0.9999738846290095]" ltau_forces_uq_num_nearest_neighbors=1 ltau_forces_uq_index_type=IndexFlatL2 ltau_forces_uq_index_args=None pbc="T T T"
Si      11.07690000      -0.23627300      10.97520000      -0.08875280      -0.14661500      -0.71459200       0.50358999
Si       2.63813000       2.76067000      -0.01216010       1.84393000      -0.92568600       0.00649916       0.48261771
Si      -0.09799430       2.79426000       2.61849000       0.01877040       0.14322700      -1.34912000       0.51065867
Si       2.65653000      10.92750000       2.62646000       0.43980600       0.00080267       2.12582000       0.45860795
Si       1.33535000       1.34158000       1.27880000      -0.47717000       1.32840000       0.95661100       0.48882865
Si       4.12469000       4.13377000       1.32433000      -1.86523000      -0.80523300       0.77255000       0.50691445
Si       1.29302000       4.05539000       3.98890000      -0.06285700       1.33265000       0.17277300       0.49658053
Si       4.08284000       1.38825000       4.12412000      -0.49955500       0.19168600      -1.49549000       0.48166177
Si       5.40450000      -0.19633900      10.97250000       0.42571400       1.33717000      -0.03602530       0.52322021
Si       8.15848000       2.63210000      10.88880000      -0.47226700      -0.30997100       0.39448800       0.49646309
Si       5.45879000       2.80457000       2.71353000      -0.32256600      -1.79773000      -0.31339000       0.46569477
Si       8.25058000       0.08223370       2.91139000      -1.43162000      -3.16339000      -1.53950000       0.50068758
Si       6.81407000       1.18082000       1.48010000      -0.55523700       1.83943000      -0.71939400       0.46638488
Si       9.34493000       4.28442000       1.18037000       1.90770000      -1.00706000       1.01608000       0.51740183
Si       6.81293000       4.10475000       4.00463000       0.23688500       0.13284600       1.66695000       0.47304201
Si       9.54626000       1.42733000       4.04003000      -0.23466700       1.87762000       0.63865900       0.48106287
Si      10.90140000       5.55753000      -0.15247500      -0.17164000      -2.45179000       0.73890100       0.51388296
Si       2.55021000       8.11151000       0.02727890       2.30643000      -0.00093342      -0.13939800       0.53293177
Si      -0.21588900       8.23091000       2.72362000       2.88623000      -2.02879000       1.60035000       0.49890187
Si       2.64160000       5.51165000       2.66817000       0.87763900      -1.00594000       0.10098500       0.50309526
Si       1.21773000       6.78710000       1.36542000      -0.43645100       1.19262000       0.60941100       0.47857362
Si       3.96889000       9.48350000       1.42913000      -0.23480900      -1.13972000      -0.67085400       0.47360722
Si       1.28620000       9.56070000       4.07143000      -0.42557100       0.71337600      -0.08592310       0.46455275
Si       4.16746000       6.77009000       3.98760000      -1.52980000       1.12373000       0.12677100       0.45037893
Si       5.53249000       5.34289000       0.08094310       0.29759300       0.83694100      -2.48990000       0.49449528
Si       8.12186000       8.17121000      10.89250000       1.10983000      -1.53615000      -0.56450100       0.56625435
Si       5.50517000       8.22124000       2.66762000      -1.23109000      -0.36791100       0.75972400       0.50112240
Si       8.18650000       5.53225000       2.78107000      -1.22925000      -0.04413780      -1.03091000       0.52451005
Si       6.75104000       6.81651000       1.35396000       1.32017000      -0.13083600       0.55280900       0.48736653
Si       9.52788000       9.45856000       1.37394000      -2.04569000       2.11279000      -0.24219800       0.52297337
Si       6.68098000       9.51489000       4.20168000       2.35185000       0.00688967      -1.61716000       0.51734255
Si       9.41953000       6.85950000       4.17444000       0.77186800       0.05256020      -0.16010700       0.48898683
Si      10.76870000      11.07470000       5.44239000       1.77104000      -1.92579000       0.92671500       0.53388341
Si       2.63220000       2.75621000       5.35627000       1.21308000       0.34904600       0.33820000       0.51663982
Si      -0.06603530       2.60150000       8.15924000      -0.74221000       0.60858300       0.60486400       0.49683879
Si       2.79836000      -0.00300858       7.98361000       0.27554600       0.66109000       1.12231000       0.51008497
Si       1.39810000       1.51082000       6.80255000      -0.46567300      -1.88333000      -0.55146000       0.50242871
Si       4.08333000       3.99564000       6.79410000      -0.58414800       0.42847300      -0.41173900       0.56193720
Si       1.31246000       3.96491000       9.43482000      -0.57631300       1.30216000       0.18257000       0.49551854
Si       4.09923000       1.20933000       9.60951000      -0.22011000       1.30377000      -0.96435500       0.53180556
Si       5.41222000      10.85100000       5.42389000      -1.12753000      -0.32065400       2.28999000       0.50827956
Si       8.15585000       2.68126000       5.44615000      -0.50136800       0.21669800      -0.85126700       0.50011468
Si       5.47598000       2.62156000       8.11391000       0.14993100      -0.46337900       0.84299800       0.49324683
Si       8.18023000      -0.10513100       8.34939000       0.78762400       1.48734000       0.30832900       0.46961484
Si       6.90855000       1.19762000       6.83369000      -0.72389000       0.76161200      -0.01515310       0.51512581
Si       9.54256000       4.07632000       6.65520000      -0.24471400      -0.40620700       2.00334000       0.51277067
Si       6.94183000       4.03900000       9.39056000      -1.50425000      -0.57891600       1.08366000       0.51357818
Si       9.68904000       1.16969000       9.85295000      -1.19217000       0.76966100      -2.81954000       0.46474065
Si      10.87180000       5.49210000       5.44011000       0.73991800       0.29393200      -0.91126600       0.54910432
Si       2.71997000       8.17989000       5.38851000       0.74701600      -0.48293400      -1.73435000       0.50361386
Si      10.92550000       8.21827000       7.94377000      -0.46897000      -0.16940600       2.81907000       0.49873740
Si       2.64014000       5.36122000       8.12273000       1.30586000       1.10687000       0.00607545       0.50108405
Si       1.43240000       6.93422000       6.72313000      -0.39966100      -2.65264000       0.01080110       0.49830687
Si       4.06433000       9.27555000       6.86101000       0.14187800       3.48845000      -2.17934000       0.49213840
Si       1.54028000       9.50454000       9.35711000      -1.90858000      -0.48631200       0.03181180       0.50539153
Si       4.12404000       6.77901000       9.56222000      -0.76338200      -0.56558400      -0.11836600       0.52697403
Si       5.36622000       5.42916000       5.40708000       1.16024000      -0.57545700       0.20906000       0.52159475
Si       8.09118000       8.17655000       5.51354000       0.26540500       1.04498000       0.03928030       0.48437252
Si       5.45909000       8.23866000       8.18581000       0.54327800      -2.99184000       0.76320100       0.48267951
Si       8.17974000       5.45398000       8.05893000       0.27911000      -0.25099000      -0.72722500       0.47614019
Si       6.75226000       6.82432000       6.75195000      -0.54866000      -0.52900000       0.95474100       0.54663742
Si       9.47495000       9.60175000       6.86423000       0.01394010      -0.08799810      -1.63896000       0.47167404
Si       6.78552000       9.45079000       9.57819000      -0.25100500       0.27457200       0.22036600       0.43696653
Si       9.54394000       6.74259000       9.42210000      -0.65143600       2.91237000      -0.90527300       0.50061625
