64
Lattice="10.862 0.0 0.0 0.0 10.862 0.0 0.0 0.0 10.862" Properties=species:S:1:pos:R:3:force:R:3:descriptors:R:10:atomic_forces_forces:R:3:ltau_forces_uq_score:R:1 PBC="1 1 1" Energy=-261.89156 energy_energy=-261.89156 ltau_forces_uq_bins="9.826158705261703e-06 1.1027062170109953e-05 1.2374733988202081e-05 1.388711144604322e-05 1.558432403465697e-05 1.7488961369744564e-05 1.9626373855691547e-05 2.2025010095210678e-05 2.4716795535485803e-05 2.7737557390534585e-05 3.1127501495435235e-05 3.4931747439266745e-05 3.92009290992939e-05 4.399186856940476e-05 4.9368332452677637e-05 5.5401880584202616e-05 6.217281848051923e-05 6.977126619261002e-05 7.82983577887071e-05 8.786758743182653e-05 9.860631996809534e-05 0.00011065748613155361 0.00012418148492831835 0.00013935831852052977 0.0001563899880250244 0.00017550318211441527 0.00019695229420541328 0.00022102280839265498 0.00024803509919425754 0.0002783486956830725 0.0003123670667585158 0.00035054299125013993 0.0003933845843281282 0.00044146206043123326 0.0004954153227255848 0.0005559624801088134 0.000623909405119375 0.000700160459965258 0.0007857305334337209 0.0008817585488913106 0.000989522623163398 0.0011104570780553508 0.001246171530935888 0.0013984723184750493 0.0015693865386831691 0.0017611890312463712 0.0019764326552623285 0.0022179822673679007 0.0024890528525018216 0.0027932523148165534 0.0031346294982791336 0.003517728076107228 0.003947647026299737 0.004430108498181178 0.0049715339732521865 0.005579129734034302 0.00626098277848512 0.007026168456588584 0.007884871261745434 0.008848520384677058 0.009929941834042498 0.0111435291484686 0.012505434972141823 0.014033786043800957 0.015748924460598036 0.017673678428009317 0.019833666099432202 0.022257636549522425 0.024977852419569537 0.028030519327856575 0.03145626776038425 0.03530069385584423 0.03961496628259934 0.044456507285101664 0.04988975696436252 0.055987030964919623 0.06282948298397104 0.07050818491351256 0.07912533899198845 0.08879563809899231 0.09964779229831235 0.11182624194735377 0.12549308017413968 0.1408302103097339 0.15804176699115657 0.1773568331592601 0.19903248911436056 0.22335723421203718 0.250654826741305 0.2812885930932962 0.31566626357475674 0.3542453992302428 0.3975394819030924 0.44612474859288853 0.5006478610735438 0.5618345128533615 0.6304990880342648 0.7075555006279824 0.794029358598705 0.8910716145335489 0.9999738846290095" ltau_forces_uq_index_type=IndexFlatL2 ltau_forces_uq_index_args=None ltau_forces_uq_num_nearest_neighbors=1 pbc="T T T"
Si      10.89020000       0.01386430      10.91900000       0.18206300       0.05134730      -0.90903000       0.47070774       0.89630272       0.78710133       0.88248926       0.92760686       0.45299871       0.30098002       0.35406394       0.49827974       0.99407869       0.18206300       0.05134730      -0.90903000       0.52268220
Si       2.78126000       2.67747000      -0.18782200       0.61041800      -0.19888000       1.68487000       0.42147194       0.60007408       0.15147348       0.14658920       0.21422606       0.28871878       0.36350588       0.78981426       0.53615019       0.19402008       0.61041800      -0.19888000       1.68487000       0.46075620
Si      -0.01614280       2.76011000       2.79097000       0.98657700       0.78837900      -0.06801930       0.75439255       0.52943409       0.44651171       0.63469975       0.99838369       0.15524897       0.67273545       0.42735527       0.44839179       0.66950384       0.98657700       0.78837900      -0.06801930       0.50867938
Si       2.73019000      10.90370000       2.58423000      -1.94026000       0.02789310       0.60508600       0.33847670       0.14076172       0.00816115       0.46195407       0.74962705       0.57368325       0.50635882       0.28037345       0.46537211       0.23799212      -1.94026000       0.02789310       0.60508600       0.50858424
Si       1.35845000       1.48632000       1.27358000       0.07412170      -0.34292000       0.61169300       0.72468059       0.52307006       0.14225588       0.89420190       0.60628874       0.39885046       0.26877506       0.42385444       0.42706768       0.91454241       0.07412170      -0.34292000       0.61169300       0.49093920
Si       3.98999000       4.04650000       1.40091000       0.78117800      -1.71219000      -1.23457000       0.73939410       0.36644932       0.04563806       0.92903273       0.88500273       0.47412972       0.44513460       0.22557233       0.97270335       0.13931876       0.78117800      -1.71219000      -1.23457000       0.51853279
Si       1.49983000       4.14850000       4.12259000      -1.57301000       0.55936100      -1.04164000       0.05346927       0.59496996       0.61189766       0.02053197       0.55093443       0.70778012       0.03031388       0.72660351       0.99980748       0.53725219      -1.57301000       0.55936100      -1.04164000       0.45934255
Si       4.03176000       1.33348000       3.99029000       2.12759000      -1.04895000      -0.23713700       0.57289902       0.49280098       0.08711361       0.04274339       0.62349614       0.79201353       0.58504787       0.47514326       0.09714513       0.46425607       2.12759000      -1.04895000      -0.23713700       0.47709396
Si       5.55468000      -0.21824700      11.01680000      -0.35860700       1.35464000      -1.10059000       0.48565782       0.12617372       0.68324216       0.12088515       0.66281755       0.29334135       0.96783391       0.08722549       0.03508471       0.50239630      -0.35860700       1.35464000      -1.10059000       0.47323332
Si       8.22312000       2.70469000      10.82620000       0.58963200      -0.33596700       0.55399200       0.67344379       0.69517258       0.30823723       0.33428697       0.29745387       0.73825456       0.82809836       0.53300108       0.17136030       0.71048856       0.58963200      -0.33596700       0.55399200       0.46078942
Si       5.42798000       2.60222000       2.58812000      -0.70270200       1.21932000       0.85395600       0.35041956       0.85396770       0.10602258       0.70179696       0.52572406       0.68989325       0.50954317       0.41950790       0.38228384       0.22316146      -0.70270200       1.21932000       0.85395600       0.48437252
Si       8.15987000       0.14953100       2.87656000       0.37195300      -0.92104800      -0.86099800       0.90921305       0.84838982       0.46506736       0.34876509       0.73030312       0.10776309       0.01046725       0.08671321       0.43926605       0.59872368       0.37195300      -0.92104800      -0.86099800       0.50954256
Si       6.88947000       1.38316000       1.36276000      -0.05630220      -1.21925000      -0.59868000       0.17499030       0.32625801       0.89165331       0.13715217       0.50963847       0.71250142       0.12563160       0.33792304       0.13929604       0.30271572      -0.05630220      -1.21925000      -0.59868000       0.48347938
Si       9.45803000       4.13151000       1.46904000       1.00699000      -1.11436000      -1.90368000       0.85970804       0.88492002       0.49189250       0.30143759       0.27100406       0.74959790       0.91314213       0.64184106       0.71017029       0.85783609       1.00699000      -1.11436000      -1.90368000       0.50512293
Si       6.75772000       4.08235000       3.86126000      -0.29294700       0.06433020       0.31750300       0.87854256       0.10145595       0.27118974       0.62126096       0.89190990       0.99611142       0.65493449       0.41949799       0.57189793       0.89743185      -0.29294700       0.06433020       0.31750300       0.48180123
Si       9.47112000       1.54313000       4.21992000      -0.42050200      -0.11165800      -0.72868600       0.03423465       0.64605292       0.97987222       0.91305953       0.66308707       0.30376702       0.71561980       0.70628133       0.16599635       0.74293216      -0.42050200      -0.11165800      -0.72868600       0.52159475
Si      10.94500000       5.19720000      -0.11994500      -0.02621610       0.49535500       2.10796000       0.57400903       0.34504282       0.06528162       0.02825872       0.43026317       0.77128573       0.05393694       0.67646849       0.80803155       0.56702339      -0.02621610       0.49535500       2.10796000       0.50709890
Si       2.58638000       8.08071000      -0.11452300       0.38705100      -1.84951000       0.19622500       0.51786888       0.12462948       0.03617890       0.23331161       0.38484664       0.20238569       0.94910740       0.93150279       0.35821466       0.78907385       0.38705100      -1.84951000       0.19622500       0.48821964
Si       0.06982360       8.17006000       2.78204000      -0.10420300      -0.19635800      -0.51799800       0.37303378       0.89459356       0.31898617       0.18266528       0.13574391       0.45064075       0.44145007       0.75320991       0.19145974       0.78913420      -0.10420300      -0.19635800      -0.51799800       0.49442089
Si       2.88711000       5.50084000       2.70204000      -2.34670000       0.13221800       0.87925600       0.09161419       0.88984096       0.57544350       0.49285202       0.90014201       0.91811802       0.54877446       0.20206950       0.43120372       0.31777678      -2.34670000       0.13221800       0.87925600       0.47267580
Si       1.30127000       6.67581000       1.36891000       0.53984200       0.46249400      -0.58876000       0.83781101       0.22854927       0.28313285       0.49705344       0.25268118       0.13497685       0.08075734       0.62294758       0.09713738       0.76265091       0.53984200       0.46249400      -0.58876000       0.51866049
Si       3.82455000       9.47458000       1.14800000       1.79829000      -0.48256800       2.32147000       0.14187756       0.40656606       0.77308317       0.21180880       0.42548045       0.99451381       0.74912182       0.65381042       0.80781133       0.23464860       1.79829000      -0.48256800       2.32147000       0.44362511
Si       1.23909000       9.66969000       4.09826000       1.55061000       0.07113580      -0.06892890       0.40327290       0.77708529       0.05511331       0.45116890       0.88663247       0.97025190       0.21211729       0.43587798       0.88574225       0.35827231       1.55061000       0.07113580      -0.06892890       0.53701002
Si       4.01030000       6.83218000       4.22558000       0.31914300      -0.37144500       1.10096000       0.02684430       0.16508821       0.69019729       0.19232152       0.68641330       0.14066429       0.63332241       0.21971628       0.89411487       0.79866298       0.31914300      -0.37144500       1.10096000       0.53966589
Si       5.36971000       5.26522000       0.06187070      -0.58025400       1.15080000      -0.80361500       0.95118214       0.20351349       0.79890953       0.38832110       0.85423210       0.23579402       0.00915765       0.39114611       0.18805940       0.59964548      -0.58025400       1.15080000      -0.80361500       0.48633684
Si       8.32737000       8.01244000      10.94610000      -0.80532200       0.58889400       0.84156500       0.78011427       0.03346920       0.01084112       0.64672490       0.74432566       0.45983236       0.91443211       0.86862967       0.75270088       0.97043703      -0.80532200       0.58889400       0.84156500       0.47448108
Si       5.16177000       8.16312000       2.79663000       0.36460100       0.46948200      -2.33516000       0.86126364       0.83872694       0.25337204       0.48802262       0.10396176       0.09375513       0.86413395       0.10097523       0.19536959       0.69670175       0.36460100       0.46948200      -2.33516000       0.52459668
Si       8.07773000       5.53330000       2.60292000      -0.99138800       0.80603700       0.14139000       0.07486793       0.71353830       0.98979611       0.56147648       0.93611813       0.20716893       0.34298214       0.85639206       0.33100768       0.37714792      -0.99138800       0.80603700       0.14139000       0.50698100
Si       6.50392000       6.83993000       1.27257000       1.88175000       0.33114200       1.08603000       0.35511200       0.73538784       0.68935049       0.78653475       0.23323413       0.37154942       0.01974724       0.37868958       0.91943727       0.95766068       1.88175000       0.33114200       1.08603000       0.45353674
Si       9.61098000       9.61312000       1.55252000      -1.27884000      -0.70380400      -1.10931000       0.82068465       0.84091090       0.45059698       0.53855517       0.15661829       0.10117105       0.73633681       0.80416510       0.65788514       0.46693048      -1.27884000      -0.70380400      -1.10931000       0.50822587
Si       6.70961000       9.46250000       3.93967000       1.75935000      -0.50312200       2.05574000       0.34622747       0.76078304       0.67043354       0.50705694       0.41246813       0.98932947       0.24327887       0.95005135       0.55376789       0.09779914       1.75935000      -0.50312200       2.05574000       0.50173408
Si       9.44434000       6.87150000       3.96205000      -0.35742100      -0.21740000       1.46871000       0.17531571       0.83696081       0.13224731       0.73930840       0.87910579       0.28669679       0.24978823       0.29190473       0.85004012       0.70171332      -0.35742100      -0.21740000       1.46871000       0.44526627
Si      10.77930000      11.03210000       5.47294000       0.08116030      -1.14187000       1.25679000       0.35534917       0.12112500       0.08634437       0.70151563       0.38072947       0.62877496       0.92170911       0.31521501       0.38330705       0.35424174       0.08116030      -1.14187000       1.25679000       0.50799180
Si       2.84093000       2.71332000       5.28298000      -0.68674700       0.09731910       1.50565000       0.56919463       0.69045691       0.57371001       0.09168452       0.40687180       0.48927675       0.68721808       0.41613053       0.64599800       0.65592756      -0.68674700       0.09731910       1.50565000       0.54187537
Si      -0.00587929       2.71181000       8.05644000      -1.38795000       1.39662000      -0.78143400       0.14368980       0.07125030       0.96442562       0.79276635       0.96879686       0.64209794       0.82419323       0.46956278       0.27919134       0.77280454      -1.38795000       1.39662000      -0.78143400       0.53053863
Si       2.70518000       0.18231400       8.15839000       0.45127700      -0.97821100      -0.10584600       0.74836104       0.71089422       0.95821044       0.89021582       0.56990902       0.18256010       0.35847894       0.02767273       0.35245452       0.22962132       0.45127700      -0.97821100      -0.10584600       0.48113156
Si       1.40129000       1.52610000       6.71125000       0.18883800      -1.00329000      -0.30807000       0.59316486       0.30109412       0.52466649       0.49659520       0.88367068       0.97958596       0.95670282       0.90541335       0.03788094       0.83308990       0.18883800      -1.00329000      -0.30807000       0.47709396
Si       4.22265000       3.88761000       6.73439000      -2.12493000       2.66669000      -0.66547900       0.82258339       0.07090930       0.24738246       0.15996108       0.82857182       0.71539188       0.96889848       0.26705569       0.72754758       0.41247015      -2.12493000       2.66669000      -0.66547900       0.51737002
Si       1.46570000       3.96352000       9.35844000      -1.59475000      -0.44260600       0.21018900       0.28456901       0.02782252       0.75622227       0.85169394       0.77033916       0.27502336       0.22781678       0.20441809       0.27463374       0.78108161      -1.59475000      -0.44260600       0.21018900       0.49059906
Si       4.27165000       1.24475000       9.53242000       0.39958700       1.08172000      -0.26829800       0.73036976       0.33466081       0.13447756       0.95501754       0.34350237       0.39698221       0.38833468       0.55494446       0.23846912       0.12393374       0.39958700       1.08172000      -0.26829800       0.44735942
Si       5.58338000      10.88520000       5.37091000      -2.28349000       0.08937410       0.97846100       0.95928528       0.76120872       0.91143393       0.57355676       0.97877255       0.65453321       0.46927381       0.09804797       0.65212591       0.24131465      -2.28349000       0.08937410       0.97846100       0.56470911
Si       8.01477000       2.90778000       5.38949000      -0.30713000      -1.36496000       0.58435600       0.63399334       0.11468209       0.77032041       0.79696238       0.03069037       0.82299517       0.63618975       0.17027988       0.54934844       0.87912312      -0.30713000      -1.36496000       0.58435600       0.47857430
Si       5.52393000       2.91152000       8.17307000       0.05152100      -4.23980000       1.09296000       0.50734679       0.22309658       0.48251839       0.61791215       0.80400876       0.06682826       0.96370645       0.93262778       0.00781263       0.06174246       0.05152100      -4.23980000       1.09296000       0.49655705
Si       8.08463000      -0.12468400       8.39981000      -0.39996500       0.31400400      -2.37653000       0.44148583       0.67956447       0.03178499       0.36276534       0.17012180       0.85168713       0.79983711       0.35884033       0.08091094       0.76463921      -0.39996500       0.31400400      -2.37653000       0.46078942
Si       6.81322000       1.39413000       6.88770000       0.73590500      -0.08270230      -0.16320000       0.39112153       0.94789374       0.33613948       0.77188906       0.15968284       0.22337106       0.30810650       0.95353775       0.99417812       0.51209293       0.73590500      -0.08270230      -0.16320000       0.50231157
Si       9.28620000       4.24930000       6.70043000       2.44586000      -1.63709000       1.04443000       0.22829214       0.01442239       0.08083302       0.04059361       0.20127080       0.19045324       0.25522716       0.79037443       0.84238958       0.90563400       2.44586000      -1.63709000       1.04443000       0.46357517
Si       6.78762000       4.03329000       9.62095000       0.96144800       0.91164600      -0.16714800       0.43767956       0.20874437       0.89879890       0.40323403       0.70072274       0.68745653       0.45485957       0.12751318       0.77775010       0.25121422       0.96144800       0.91164600      -0.16714800       0.47514917
Si       9.55575000       1.27734000       9.39641000       0.28868300       0.87978400       1.96101000       0.31742568       0.82895566       0.37402035       0.61324549       0.77461446       0.53314084       0.39068091       0.06640597       0.30390784       0.30056588       0.28868300       0.87978400       1.96101000       0.48437252
Si      10.74320000       5.51114000       5.40005000       1.79721000       0.45854700      -0.46719700       0.14137268       0.99821535       0.55976279       0.48278420       0.63395894       0.50848404       0.68904616       0.08254896       0.66438850       0.65733051       1.79721000       0.45854700      -0.46719700       0.45546149
Si       2.66004000       8.36988000       5.53927000       0.98960700       0.15766700      -2.18557000       0.21708142       0.05421514       0.33869764       0.79518644       0.93977603       0.49117488       0.00952496       0.66486864       0.97045342       0.47541842       0.98960700       0.15766700      -2.18557000       0.46776036
Si      10.97170000       8.03105000       8.08799000      -0.42631700       0.56172400       1.38906000       0.11995933       0.75909082       0.26221073       0.65697512       0.03328166       0.27943404       0.80158087       0.26959512       0.91936269       0.51218644      -0.42631700       0.56172400       1.38906000       0.49968979
Si       2.64202000       5.29495000       8.02900000       2.88221000       0.66298800      -0.95669800       0.53009582       0.44615561       0.56089341       0.67369187       0.29930034       0.28919608       0.73364705       0.74144491       0.48739443       0.16044534       2.88221000       0.66298800      -0.95669800       0.50894561
Si       1.54922000       6.85673000       6.66876000      -2.89946000      -1.93207000       0.76135600       0.46271728       0.90621333       0.84516789       0.80141656       0.96102689       0.19334392       0.81131108       0.89045855       0.43015295       0.40961154      -2.89946000      -1.93207000       0.76135600       0.52120133
Si       4.06356000       9.57465000       6.89002000       0.71127900       1.56535000      -1.07937000       0.12881418       0.65408322       0.50695668       0.95974707       0.74985327       0.19844000       0.22533285       0.28907897       0.34328400       0.00505773       0.71127900       1.56535000      -1.07937000       0.50303204
Si       1.43296000       9.54996000       9.48811000      -1.67487000       0.18508700      -0.83310500       0.93886968       0.84662125       0.08920601       0.94960142       0.87629525       0.82841415       0.17636580       0.80110774       0.79492246       0.19532406      -1.67487000       0.18508700      -0.83310500       0.49508423
Si       4.03973000       6.62297000       9.47476000      -0.50441900       0.42879700      -0.27860000       0.61346464       0.45178592       0.57035583       0.97344265       0.10512636       0.79700744       0.67371288       0.73485334       0.84213709       0.18698267      -0.50441900       0.42879700      -0.27860000       0.50167481
Si       5.54014000       5.29731000       5.43437000      -1.08161000       1.47238000      -0.42102600       0.08682462       0.66193424       0.52009254       0.88638508       0.61117785       0.50640524       0.82841867       0.42304995       0.65695684       0.89764938      -1.08161000       1.47238000      -0.42102600       0.46248699
Si       8.15433000       8.07598000       5.62953000      -0.66847100       1.27948000      -2.62028000       0.74363769       0.50941864       0.64997431       0.57069446       0.15713372       0.41436298       0.06704386       0.46173443       0.36786835       0.81785291      -0.66847100       1.27948000      -2.62028000       0.50087764
Si       5.35519000       8.13469000       8.13245000      -0.26157500      -0.86412300       1.27460000       0.08850512       0.74936491       0.25999022       0.90259277       0.83296057       0.36702633       0.22138182       0.44182793       0.99050686       0.65713658      -0.26157500      -0.86412300       1.27460000       0.50251127
Si       8.11639000       5.38766000       8.24777000      -1.28553000       1.04401000       0.05858320       0.65592693       0.71850618       0.24851384       0.75943053       0.25784775       0.55083901       0.05875270       0.99634647       0.46373775       0.88006053      -1.28553000       1.04401000       0.05858320       0.49093920
Si       6.70952000       6.78904000       6.86716000       0.70222300      -1.31743000       0.12928300       0.17109806       0.21013280       0.26333262       0.19773257       0.31329769       0.38773747       0.43042319       0.38826574       0.19367690       0.33710065       0.70222300      -1.31743000       0.12928300       0.47696150
Si       9.48941000       9.48831000       6.93818000       0.50419600       0.54957900      -0.52748300       0.01987468       0.71381650       0.17478140       0.57252211       0.43709017       0.13402699       0.32687118       0.32809188       0.99493453       0.15692620       0.50419600       0.54957900      -0.52748300       0.50561849
Si       6.77551000       9.25329000       9.61745000       0.59805200       0.22529300       0.40305400       0.77434181       0.46841258       0.76672254       0.28058194       0.07743004       0.84030786       0.86482007       0.91043256       0.55366008       0.49205906       0.59805200       0.22529300       0.40305400       0.47589030
Si       9.59740000       6.57558000       9.56045000       0.30165600       1.73271000      -1.16403000       0.00960277       0.14093670       0.32545387       0.89515841       0.82141126       0.54470566       0.40717628       0.05616362       0.38427789       0.24811374       0.30165600       1.73271000      -1.16403000       0.50620029
64
Lattice="10.862 0.0 0.0 0.0 10.862 0.0 0.0 0.0 10.862" Properties=species:S:1:pos:R:3:force:R:3:descriptors:R:10:atomic_forces_forces:R:3:ltau_forces_uq_score:R:1 PBC="1 1 1" Energy=-263.41265 energy_energy=-263.41265 ltau_forces_uq_bins="9.826158705261703e-06 1.1027062170109953e-05 1.2374733988202081e-05 1.388711144604322e-05 1.558432403465697e-05 1.7488961369744564e-05 1.9626373855691547e-05 2.2025010095210678e-05 2.4716795535485803e-05 2.7737557390534585e-05 3.1127501495435235e-05 3.4931747439266745e-05 3.92009290992939e-05 4.399186856940476e-05 4.9368332452677637e-05 5.5401880584202616e-05 6.217281848051923e-05 6.977126619261002e-05 7.82983577887071e-05 8.786758743182653e-05 9.860631996809534e-05 0.00011065748613155361 0.00012418148492831835 0.00013935831852052977 0.0001563899880250244 0.00017550318211441527 0.00019695229420541328 0.00022102280839265498 0.00024803509919425754 0.0002783486956830725 0.0003123670667585158 0.00035054299125013993 0.0003933845843281282 0.00044146206043123326 0.0004954153227255848 0.0005559624801088134 0.000623909405119375 0.000700160459965258 0.0007857305334337209 0.0008817585488913106 0.000989522623163398 0.0011104570780553508 0.001246171530935888 0.0013984723184750493 0.0015693865386831691 0.0017611890312463712 0.0019764326552623285 0.0022179822673679007 0.0024890528525018216 0.0027932523148165534 0.0031346294982791336 0.003517728076107228 0.003947647026299737 0.004430108498181178 0.0049715339732521865 0.005579129734034302 0.00626098277848512 0.007026168456588584 0.007884871261745434 0.008848520384677058 0.009929941834042498 0.0111435291484686 0.012505434972141823 0.014033786043800957 0.015748924460598036 0.017673678428009317 0.019833666099432202 0.022257636549522425 0.024977852419569537 0.028030519327856575 0.03145626776038425 0.03530069385584423 0.03961496628259934 0.044456507285101664 0.04988975696436252 0.055987030964919623 0.06282948298397104 0.07050818491351256 0.07912533899198845 0.08879563809899231 0.09964779229831235 0.11182624194735377 0.12549308017413968 0.1408302103097339 0.15804176699115657 0.1773568331592601 0.19903248911436056 0.22335723421203718 0.250654826741305 0.2812885930932962 0.31566626357475674 0.3542453992302428 0.3975394819030924 0.44612474859288853 0.5006478610735438 0.5618345128533615 0.6304990880342648 0.7075555006279824 0.794029358598705 0.8910716145335489 0.9999738846290095" ltau_forces_uq_index_type=IndexFlatL2 ltau_forces_uq_index_args=None ltau_forces_uq_num_nearest_neighbors=1 pbc="T T T"
Si      10.87020000      -0.10323000      10.87150000      -0.88655100       0.66580900       0.66663200       0.54259691       0.29507195       0.59669881       0.34352137       0.67412122       0.06689876       0.04742022       0.90513606       0.56864768       0.63188753      -0.88655100       0.66580900       0.66663200       0.47322729
Si       2.65429000       2.76148000       0.12119900      -0.18204800      -0.14381100      -1.66213000       0.64667877       0.41115570       0.77742676       0.72141915       0.99313452       0.03157318       0.59703890       0.65416204       0.17216402       0.78124319      -0.18204800      -0.14381100      -1.66213000       0.50933956
Si       0.04534280       2.54229000       2.71367000      -0.31239300       1.28413000      -0.34221500       0.64612824       0.00359599       0.91355751       0.83304537       0.90673057       0.78317419       0.53708578       0.78903997       0.31726078       0.75246563      -0.31239300       1.28413000      -0.34221500       0.48266681
Si       2.75605000      10.79160000       2.77087000       0.49802300       1.29216000      -0.38615600       0.85204572       0.85340302       0.51367818       0.87282239       0.82017011       0.79894650       0.37201285       0.66423859       0.96686152       0.14900056       0.49802300       1.29216000      -0.38615600       0.48877403
Si       1.37964000       1.19201000       1.34585000       0.32651700       0.56935500       0.57201200       0.18910324       0.95207726       0.03471561       0.46974636       0.83958842       0.98388376       0.12453032       0.50500719       0.71507885       0.28489893       0.32651700       0.56935500       0.57201200       0.50896856
Si       4.21562000       4.01445000       1.29038000      -1.57418000       0.52151400       1.83923000       0.93693641       0.91465432       0.26961156       0.43272495       0.16421500       0.19321526       0.24506897       0.08956187       0.96704806       0.11131989      -1.57418000       0.52151400       1.83923000       0.47520451
Si       1.31004000       4.07703000       4.16101000       1.12994000      -1.50576000      -0.43038900       0.21319411       0.02442041       0.33968919       0.75084700       0.61326560       0.61570611       0.92807428       0.42118299       0.82759519       0.41592549       1.12994000      -1.50576000      -0.43038900       0.48898683
Si       4.02837000       1.46524000       4.07590000       0.20386000      -0.99345400      -0.12441300       0.86852655       0.88479199       0.00105148       0.94140497       0.88036314       0.35445802       0.11195408       0.09438801       0.79780397       0.12121414       0.20386000      -0.99345400      -0.12441300       0.53430318