64
Lattice="10.862 0.0 0.0 0.0 10.862 0.0 0.0 0.0 10.862" Properties=species:S:1:pos:R:3:force:R:3:descriptors:R:10:atomic_forces_forces:R:3:ltau_forces_uq_score:R:1 PBC="1 1 1" Energy=-262.6728 energy_energy=-262.6728 ltau_forces_uq_bins="9.826158705261703e-06 1.1027062170109953e-05 1.2374733988202081e-05 1.388711144604322e-05 1.558432403465697e-05 1.7488961369744564e-05 1.9626373855691547e-05 2.2025010095210678e-05 2.4716795535485803e-05 2.7737557390534585e-05 3.1127501495435235e-05 3.4931747439266745e-05 3.92009290992939e-05 4.399186856940476e-05 4.9368332452677637e-05 5.5401880584202616e-05 6.217281848051923e-05 6.977126619261002e-05 7.82983577887071e-05 8.786758743182653e-05 9.860631996809534e-05 0.00011065748613155361 0.00012418148492831835 0.00013935831852052977 0.0001563899880250244 0.00017550318211441527 0.00019695229420541328 0.00022102280839265498 0.00024803509919425754 0.0002783486956830725 0.0003123670667585158 0.00035054299125013993 0.0003933845843281282 0.00044146206043123326 0.0004954153227255848 0.0005559624801088134 0.000623909405119375 0.000700160459965258 0.0007857305334337209 0.0008817585488913106 0.000989522623163398 0.0011104570780553508 0.001246171530935888 0.0013984723184750493 0.0015693865386831691 0.0017611890312463712 0.0019764326552623285 0.0022179822673679007 0.0024890528525018216 0.0027932523148165534 0.0031346294982791336 0.003517728076107228 0.003947647026299737 0.004430108498181178 0.0049715339732521865 0.005579129734034302 0.00626098277848512 0.007026168456588584 0.007884871261745434 0.008848520384677058 0.009929941834042498 0.0111435291484686 0.012505434972141823 0.014033786043800957 0.015748924460598036 0.017673678428009317 0.019833666099432202 0.022257636549522425 0.024977852419569537 0.028030519327856575 0.03145626776038425 0.03530069385584423 0.03961496628259934 0.044456507285101664 0.04988975696436252 0.055987030964919623 0.06282948298397104 0.07050818491351256 0.07912533899198845 0.08879563809899231 0.09964779229831235 0.11182624194735377 0.12549308017413968 0.1408302103097339 0.15804176699115657 0.1773568331592601 0.19903248911436056 0.22335723421203718 0.250654826741305 0.2812885930932962 0.31566626357475674 0.3542453992302428 0.3975394819030924 0.44612474859288853 0.5006478610735438 0.5618345128533615 0.6304990880342648 0.7075555006279824 0.794029358598705 0.8910716145335489 0.9999738846290095" ltau_forces_uq_index_type=IndexFlatL2 ltau_forces_uq_index_args=None ltau_forces_uq_num_nearest_neighbors=1 pbc="T T T"
Si      10.85710000       0.04135860      10.75050000       0.18517200      -1.42186000       1.36386000       0.30101889       0.72182102       0.48191748       0.22361496       0.02476626       0.54723174       0.83591806       0.90721066       0.93328509       0.55183668       0.18517200      -1.42186000       1.36386000       0.46839937
Si       2.68827000       2.54804000      -0.10146700       0.71828600       1.30935000       0.60228800       0.84233759       0.80439806       0.97498689       0.03360439       0.99526203       0.06019181       0.06628393       0.42851713       0.52869778       0.52115258       0.71828600       1.30935000       0.60228800       0.47380682
Si       0.12234500       2.68721000       2.83351000      -0.82789200       0.53277000      -0.67570700       0.18949987       0.47065288       0.61843016       0.26356989       0.33982049       0.78488399       0.58155981       0.74903907       0.91998471       0.49264343      -0.82789200       0.53277000      -0.67570700       0.50193643
Si       2.66113000      10.77600000       2.56459000       1.31216000       0.25596200       1.23595000       0.47891810       0.63112569       0.24944687       0.63270428       0.16837118       0.83102581       0.58766416       0.26438380       0.00920451       0.90341849       1.31216000       0.25596200       1.23595000       0.49430951
Si       1.32418000       1.28421000       1.38388000      -0.12625700       0.80456100      -1.08841000       0.66376547       0.28670021       0.75399890       0.30980981       0.99947229       0.12008031       0.79690555       0.01204009       0.74899695       0.12218085      -0.12625700       0.80456100      -1.08841000       0.51545514
Si       4.08030000       4.11655000       1.31129000      -1.24774000      -1.80469000       1.73467000       0.86011368       0.49797557       0.94268763       0.34426529       0.01978217       0.06841383       0.33954255       0.71918666       0.46490051       0.44523507      -1.24774000      -1.80469000       1.73467000       0.46904329
Si       1.33915000       4.11715000       4.25500000       1.05393000      -0.88973200      -0.04239670       0.81245190       0.11490814       0.58885035       0.53785285       0.10438048       0.63918708       0.56456882       0.43260574       0.18930287       0.88129744       1.05393000      -0.88973200      -0.04239670       0.43697872
Si       4.19928000       1.24519000       3.93564000      -1.11945000       0.84177700      -1.81312000       0.60293166       0.00027465       0.27584291       0.19481103       0.63654739       0.48332316       0.58857488       0.92407282       0.00871159       0.75287448      -1.11945000       0.84177700      -1.81312000       0.50247977
Si       5.44875000      -0.12606900      10.88730000       1.38871000      -0.10621300      -1.21953000       0.98672025       0.29284261       0.63668858       0.87925466       0.87358671       0.01871920       0.73815010       0.62431553       0.80834703       0.41568524       1.38871000      -0.10621300      -1.21953000       0.53842677
Si       8.19065000       2.63131000      10.87030000      -1.21394000       0.87575600      -0.32057000       0.53542282       0.04412691       0.54240276       0.16127652       0.80331410       0.53035148       0.11741416       0.17929773       0.19302715       0.03624069      -1.21394000       0.87575600      -0.32057000       0.49711227
Si       5.64753000       2.64317000       2.58819000      -1.57371000      -0.08298130      -0.56630600       0.31411190       0.43270268       0.68748481       0.53681064       0.00418591       0.40995595       0.77004485       0.63497825       0.73828515       0.02670861      -1.57371000      -0.08298130      -0.56630600       0.49517938
Si       8.22598000       0.03288050       2.83549000       0.48088500      -2.13679000       0.45088500       0.72863815       0.79538974       0.11688703       0.08889712       0.79210364       0.71532672       0.92963766       0.41729475       0.57668531       0.08590892       0.48088500      -2.13679000       0.45088500       0.51039113
Si       6.98708000       1.11241000       1.28074000      -1.36285000       1.68749000       0.32952100       0.57232628       0.69868180       0.60309756       0.94604933       0.62674847       0.22320862       0.24627913       0.35489629       0.72503714       0.90694755      -1.36285000       1.68749000       0.32952100       0.48538853
Si       9.45202000       3.91512000       1.40095000       2.40284000       0.24844400       0.11650200       0.36412978       0.29091295       0.01455272       0.78872980       0.42514412       0.12627846       0.18986294       0.15152897       0.31935096       0.37394035       2.40284000       0.24844400       0.11650200       0.49540569
Si       6.76234000       4.18109000       3.93649000       0.19940900      -0.35631300       1.46487000       0.74826500       0.00686299       0.41419496       0.46370578       0.14547090       0.24798582       0.92144347       0.60352957       0.47735066       0.65917099       0.19940900      -0.35631300       1.46487000       0.48991120
Si       9.63793000       1.41494000       4.21485000      -1.27325000      -0.24160500      -0.01211240       0.19437743       0.35358611       0.66618154       0.60816531       0.81439926       0.78361505       0.73267310       0.18849343       0.98725189       0.21056293      -1.27325000      -0.24160500      -0.01211240       0.45546149
Si      10.98460000       5.28453000       0.10728600       0.36378200      -0.38895400       0.73092900       0.04808078       0.87841004       0.68724589       0.99243507       0.56296439       0.30984733       0.24678327       0.68410883       0.95541987       0.69904904       0.36378200      -0.38895400       0.73092900       0.44791915
Si       2.48972000       8.16498000      -0.10538400       1.27988000      -1.04097000       1.48504000       0.63336340       0.08335814       0.85969592       0.81380788       0.36729543       0.14109674       0.67470750       0.42353525       0.07923698       0.32085366       1.27988000      -1.04097000       1.48504000       0.54850484
Si      -0.04986100       8.31916000       2.80243000       1.89021000      -2.74247000      -1.42931000       0.68165376       0.71802491       0.39695719       0.31789927       0.54026358       0.94738330       0.24038135       0.54126761       0.65994065       0.25395386       1.89021000      -2.74247000      -1.42931000       0.53086227
Si       2.76031000       5.46190000       3.01631000       0.70631900      -1.43743000      -2.14674000       0.57230228       0.37835953       0.89828686       0.97286765       0.56338574       0.05332648       0.42764456       0.56827203       0.26005247       0.29598193       0.70631900      -1.43743000      -2.14674000       0.48534481
Si       1.50743000       6.72692000       1.57750000      -2.56675000       1.17412000      -1.09218000       0.72432887       0.55887123       0.95404560       0.52545302       0.99635091       0.56851331       0.07491535       0.67507532       0.80024886       0.30902347      -2.56675000       1.17412000      -1.09218000       0.47380682
Si       3.96232000       9.47420000       1.11585000      -0.29755300      -0.62998700       1.82692000       0.14467244       0.86003239       0.09975154       0.77118758       0.32961328       0.28443706       0.82303310       0.38812962       0.76961788       0.14655407      -0.29755300      -0.62998700       1.82692000       0.46823018
Si       1.30856000       9.56679000       4.04624000       1.37419000      -0.09111440       0.28758000       0.12757628       0.04036716       0.94859106       0.45555148       0.58881983       0.13258917       0.24917575       0.69248022       0.26446404       0.43548825       1.37419000      -0.09111440       0.28758000       0.48232805
Si       4.04819000       6.95598000       4.10067000       0.03019790       0.78832700       0.69335800       0.79200305       0.55541645       0.20857084       0.37412133       0.75893344       0.59571435       0.14180750       0.42862386       0.62344089       0.03386013       0.03019790       0.78832700       0.69335800       0.54006763
Si       5.35080000       5.53702000       0.12934400      -0.59122600      -0.02577700      -3.23545000       0.95027821       0.52945320       0.88726911       0.38870466       0.02506184       0.89820059       0.01248483       0.92487424       0.47227415       0.02578821      -0.59122600      -0.02577700      -3.23545000       0.50228871
Si       8.07039000       8.03829000      11.05040000       0.91062700      -0.19246700      -1.31493000       0.02490780       0.35893577       0.84894876       0.76811456       0.23591701       0.56215444       0.42814570       0.78112569       0.49113211       0.44191584       0.91062700      -0.19246700      -1.31493000       0.50173408
Si       5.35243000       8.24806000       2.61678000      -1.39182000       0.37966200       0.86104300       0.27673772       0.60351003       0.40053027       0.08606468       0.39739578       0.65555469       0.08685778       0.97782576       0.31626813       0.32702196      -1.39182000       0.37966200       0.86104300       0.55468560
Si       8.24261000       5.36155000       2.66260000      -1.61796000       1.96995000      -0.48354200       0.01833606       0.77299401       0.33444094       0.84571609       0.31441930       0.40500677       0.43527822       0.62741243       0.73860893       0.02994834      -1.61796000       1.96995000      -0.48354200       0.52069698
Si       6.60026000       6.83828000       1.43521000       2.46754000      -1.42391000       0.96183300       0.46540717       0.05744011       0.08952304       0.67886456       0.13405363       0.50509671       0.19945929       0.90928439       0.32444772       0.25431095       2.46754000      -1.42391000       0.96183300       0.55989226
Si       9.53916000       9.37885000       1.34265000      -0.77091000       3.15062000      -0.25930200       0.24013973       0.48939577       0.39482460       0.59639586       0.70947168       0.86533015       0.39554489       0.34646556       0.49277108       0.49887316      -0.77091000       3.15062000      -0.25930200       0.47360722
Si       6.63504000       9.44955000       4.15234000       2.44523000       0.13834100      -2.47886000       0.43863792       0.81403385       0.46057167       0.56120575       0.14268407       0.62680844       0.80887077       0.14884989       0.37932099       0.53890325       2.44523000       0.13834100      -2.47886000       0.50088908
Si       9.49427000       6.89403000       3.92599000       0.03113530      -1.45890000       2.20782000       0.64922011       0.62780735       0.64117146       0.62280952       0.34209742       0.37244491       0.23478506       0.11065033       0.29785193       0.06093784       0.03113530      -1.45890000       2.20782000       0.48113156
Si      10.90240000      10.72530000       5.47789000      -0.38461100       2.20005000       0.53411000       0.63113751       0.19047203       0.33702640       0.71891115       0.79150910       0.89239092       0.11040881       0.40175219       0.33544431       0.26602277      -0.38461100       2.20005000       0.53411000       0.50956342
Si       2.87758000       2.55774000       5.34772000      -0.92617200       1.42679000       0.40011800       0.35068117       0.13654470       0.97732883       0.08807461       0.92704889       0.12519498       0.72423054       0.72720008       0.98069914       0.56735817      -0.92617200       1.42679000       0.40011800       0.45961131
Si      -0.17022800       2.71519000       7.91272000       1.09572000       0.89724200       1.26395000       0.26284880       0.21714233       0.70775955       0.71448483       0.04207589       0.31188991       0.28535194       0.30101583       0.46898792       0.32000407       1.09572000       0.89724200       1.26395000       0.49640405
Si       2.73269000       0.17728200       8.09607000      -0.49903900      -1.87620000       0.34151400       0.31468951       0.08453349       0.12117926       0.35958143       0.35527631       0.80520674       0.24859293       0.84254985       0.75831624       0.28541306      -0.49903900      -1.87620000       0.34151400       0.55989226
Si       1.32291000       1.40356000       6.73842000       0.47127900      -0.45321700      -0.86686100       0.21245697       0.89389843       0.68775907       0.39069029       0.33410108       0.39885997       0.63483687       0.60290977       0.87182512       0.27738561       0.47127900      -0.45321700      -0.86686100       0.50061625
Si       4.22072000       4.02560000       6.68417000      -0.83044500      -0.10981900       0.81889100       0.09078031       0.91090832       0.82749731       0.59378372       0.46026319       0.37859527       0.09163185       0.54559684       0.79850417       0.88816456      -0.83044500      -0.10981900       0.81889100       0.44999182
Si       1.33589000       3.97009000       9.33851000      -0.42457700      -0.36123000       0.65075400       0.95105810       0.60723977       0.95081072       0.20156529       0.94754723       0.99333085       0.11857521       0.79027026       0.84201961       0.63993057      -0.42457700      -0.36123000       0.65075400       0.47380682
Si       4.19306000       1.19757000       9.50417000      -0.57874600       1.40960000       0.32911200       0.43033351       0.36675116       0.26857391       0.70312584       0.92717393       0.23308589       0.15821218       0.44661794       0.75558209       0.77247810      -0.57874600       1.40960000       0.32911200       0.50251127
Si       5.43294000      10.86180000       5.28689000      -0.12340000       0.20359600       3.31187000       0.09499137       0.33516088       0.75065386       0.11238055       0.77785762       0.49472812       0.14258143       0.16648863       0.07932332       0.78246242      -0.12340000       0.20359600       3.31187000       0.44996884
Si       8.12954000       2.91004000       5.43885000      -0.34229600      -1.38022000      -1.30153000       0.03419119       0.93814054       0.77627580       0.31865814       0.28791646       0.04795549       0.23019388       0.45693565       0.68054775       0.97554070      -0.34229600      -1.38022000      -1.30153000       0.44999182
Si       5.51148000       2.56117000       8.18315000       0.40568700       1.77808000      -0.53887100       0.56174330       0.31716427       0.07140940       0.00544433       0.19732023       0.47635039       0.78265535       0.43179231       0.54383956       0.46333395       0.40568700       1.77808000      -0.53887100       0.48591059
Si       8.28538000       0.04696280       8.17378000      -2.14392000       0.16959800       1.14981000       0.33462468       0.33774834       0.91984408       0.98483594       0.24644264       0.03718090       0.74236555       0.32329139       0.43417149       0.00186802      -2.14392000       0.16959800       1.14981000       0.54850484
Si       6.88182000       1.31607000       6.71773000      -0.18137300       0.15975800       0.02044880       0.76424646       0.13732541       0.39035199       0.53308868       0.17468205       0.28213823       0.17590804       0.77330443       0.88064639       0.98185071      -0.18137300       0.15975800       0.02044880       0.56197315
Si       9.48174000       4.25618000       6.64370000      -1.11025000      -0.08454080       2.70735000       0.62617257       0.77352136       0.04994319       0.69523156       0.83348008       0.95337332       0.06855570       0.07762976       0.58101211       0.32750903      -1.11025000      -0.08454080       2.70735000       0.46018595
Si       6.78756000       4.14204000       9.56978000      -0.16331700      -0.60210400       0.26859500       0.62447231       0.54760516       0.56284770       0.30685933       0.61793237       0.72146721       0.63987135       0.39746749       0.70419127       0.01041690      -0.16331700      -0.60210400       0.26859500       0.51171671
Si       9.55868000       1.45858000       9.53177000      -0.07270730      -0.52291900      -1.47404000       0.68819138       0.66463452       0.06953316       0.48908010       0.28296620       0.72480021       0.65975487       0.53425447       0.86639872       0.01104837      -0.07270730      -0.52291900      -1.47404000       0.54433789
Si      10.86290000       5.54940000       5.51213000      -0.01796910       1.51025000      -1.84008000       0.24882401       0.09084884       0.39271094       0.44660662       0.46455038       0.48142595       0.96497396       0.51624264       0.90925139       0.60887676      -0.01796910       1.51025000      -1.84008000       0.46289842
Si       2.64040000       8.29698000       5.48980000      -0.18569100      -0.87916400       0.28505800       0.06843825       0.04866374       0.88362605       0.68500888       0.75914257       0.29765847       0.42129603       0.97583956       0.95130630       0.94397535      -0.18569100      -0.87916400       0.28505800       0.50067330
Si      10.64160000       8.06868000       8.25741000       1.13920000       1.41625000       0.72653800       0.72108205       0.31076947       0.55994152       0.95836120       0.40668768       0.71519222       0.37820046       0.04241706       0.87751652       0.58781981       1.13920000       1.41625000       0.72653800       0.50040157
Si       2.62750000       5.38791000       8.00593000       1.29985000      -0.17923000       0.58902200       0.13097848       0.92521619       0.21471017       0.96200006       0.61245475       0.69882892       0.30814325       0.66845538       0.88509767       0.25588584       1.29985000      -0.17923000       0.58902200       0.48815029
Si       1.23434000       6.90926000       6.95489000       0.90276400      -0.16432400      -1.93606000       0.01494252       0.81475105       0.73215774       0.33574084       0.37169407       0.92218786       0.56460751       0.49221749       0.77373088       0.98395288       0.90276400      -0.16432400      -1.93606000       0.46338171
Si       4.05654000       9.60677000       6.82166000      -0.04464880       0.61224200      -1.34288000       0.69711633       0.36012721       0.20095622       0.38293886       0.12894129       0.88130054       0.21783058       0.43796011       0.19463509       0.73411922      -0.04464880       0.61224200      -1.34288000       0.47943257
Si       1.38647000       9.52711000       9.40294000      -2.06774000       1.00495000      -1.07632000       0.52997126       0.31293965       0.00980606       0.20090408       0.76586420       0.88862225       0.29054317       0.31587763       0.49008465       0.28524822      -2.06774000       1.00495000      -1.07632000       0.54414536
Si       3.85850000       6.87644000       9.45727000       1.38209000      -1.73873000      -0.06514670       0.40589145       0.44094143       0.06320082       0.14801265       0.62223377       0.97281070       0.02439737       0.55047042       0.71640825       0.53791870       1.38209000      -1.73873000      -0.06514670       0.46678462
Si       5.41721000       5.59661000       5.36802000       0.52826900      -1.31022000      -0.10660100       0.27661304       0.09965814       0.53226390       0.73181630       0.95861427       0.27357152       0.57223688       0.12446071       0.95357089       0.93194970       0.52826900      -1.31022000      -0.10660100       0.48219316
Si       8.09138000       8.12227000       5.37197000       0.56999500       0.73260500       1.37375000       0.65347762       0.06537230       0.79096788       0.91805141       0.00399050       0.82623931       0.59495797       0.35667386       0.87555585       0.89121719       0.56999500       0.73260500       1.37375000       0.47857430
Si       5.30855000       8.13242000       8.05302000       0.94905500       0.61748100       1.94083000       0.56463897       0.56867183       0.22092445       0.37200503       0.90925463       0.11506616       0.80077410       0.21656124       0.24295229       0.64902148       0.94905500       0.61748100       1.94083000       0.50465098
Si       8.23084000       5.56695000       8.30365000      -1.06752000      -1.38362000      -1.66488000       0.66863328       0.95365009       0.33663870       0.20971561       0.89926365       0.21875380       0.82911686       0.90038367       0.59640707       0.40100605      -1.06752000      -1.38362000      -1.66488000       0.52089863
Si       6.75010000       6.81964000       6.82292000       0.93249800      -0.17938800      -0.00870993       0.47614607       0.84293280       0.44695234       0.87099594       0.81123547       0.26570100       0.62402653       0.32374637       0.99335583       0.22735837       0.93249800      -0.17938800      -0.00870993       0.47524129
Si       9.48128000       9.57775000       6.87841000      -0.18620000      -2.52025000      -1.59374000       0.74724554       0.86206508       0.22140771       0.49909067       0.55718192       0.77273445       0.74748751       0.07836884       0.97452279       0.00186604      -0.18620000      -2.52025000      -1.59374000       0.54433789
Si       6.88491000       9.37829000       9.54641000      -0.88033100       0.59107600      -1.19660000       0.06412428       0.63118592       0.31673683       0.08830989       0.58363230       0.30776773       0.34830339       0.27658524       0.43142043       0.55121982      -0.88033100       0.59107600      -1.19660000       0.48893738
Si       9.56998000       6.65672000       9.77522000      -0.70466400       1.33066000       0.12598800       0.35737691       0.13990238       0.58232459       0.73223563       0.29472710       0.92990127       0.15182218       0.81139330       0.24064126       0.33471692      -0.70466400       1.33066000       0.12598800       0.52089138
