64
Lattice="10.862 0.0 0.0 0.0 10.862 0.0 0.0 0.0 10.862" Properties=species:S:1:pos:R:3:atomic_forces_forces:R:3:ltau_forces_uq_score:R:1 co-id=CO_1252997237034348998 energy_energy=-261.89156 energy_per_atom=F ltau_forces_uq_bins="_JSON [9.826158705261703e-06, 1.1027062170109953e-05, 1.2374733988202081e-05, 1.388711144604322e-05, 1.558432403465697e-05, 1.7488961369744564e-05, 1.9626373855691547e-05, 2.2025010095210678e-05, 2.4716795535485803e-05, 2.7737557390534585e-05, 3.1127501495435235e-05, 3.4931747439266745e-05, 3.92009290992939e-05, 4.399186856940476e-05, 4.9368332452677637e-05, 5.5401880584202616e-05, 6.217281848051923e-05, 6.977126619261002e-05, 7.82983577887071e-05, 8.786758743182653e-05, 9.860631996809534e-05, 0.00011065748613155361, 0.00012418148492831835, 0.00013935831852052977, 0.0001563899880250244, 0.00017550318211441527, 0.00019695229420541328, 0.00022102280839265498, 0.00024803509919425754, 0.0002783486956830725, 0.0003123670667585158, 0.00035054299125013993, 0.0003933845843281282, 0.00044146206043123326, 0.0004954153227255848, 0.0005559624801088134, 0.000623909405119375, 0.000700160459965258, 0.0007857305334337209, 0.0008817585488913106, 0.000989522623163398, 0.0011104570780553508, 0.001246171530935888, 0.0013984723184750493, 0.0015693865386831691, 0.0017611890312463712, 0.0019764326552623285, 0.0022179822673679007, 0.0024890528525018216, 0.0027932523148165534, 0.0031346294982791336, 0.003517728076107228, 0.003947647026299737, 0.004430108498181178, 0.0049715339732521865, 0.005579129734034302, 0.00626098277848512, 0.007026168456588584, 0.007884871261745434, 0.008848520384677058, 0.009929941834042498, 0.0111435291484686, 0.012505434972141823, 0.014033786043800957, 0.015748924460598036, 0.017673678428009317, 0.019833666099432202, 0.022257636549522425, 0.024977852419569537, 0.028030519327856575, 0.03145626776038425, 0.03530069385584423, 0.03961496628259934, 0.044456507285101664, 0.04988975696436252, 0.055987030964919623, 0.06282948298397104, 0.07050818491351256, 0.07912533899198845, 0.08879563809899231, 0.09964779229831235, 0.11182624194735377, 0.12549308017413968, 0.1408302103097339, 0.15804176699115657, 0.1773568331592601, 0.19903248911436056, 0.22335723421203718, 0.250654826741305, 0.2812885930932962, 0.31566626357475674, 0.3542453992302428, 0.3975394819030924, 0.44612474859288853, 0.5006478610735438, 0.5618345128533615, 0.6304990880342648, 0.7075555006279824, 0.794029358598705, 0.8910716145335489, 0.9999738846290095]" ltau_forces_uq_num_nearest_neighbors=1 ltau_forces_uq_index_type=IndexFlatL2 ltau_forces_uq_index_args=None pbc="T T T"
Si      10.89020000       0.01386430      10.91900000       0.18206300       0.05134730      -0.90903000       0.52268220
Si       2.78126000       2.67747000      -0.18782200       0.61041800      -0.19888000       1.68487000       0.46075620
Si      -0.01614280       2.76011000       2.79097000       0.98657700       0.78837900      -0.06801930       0.50867938
Si       2.73019000      10.90370000       2.58423000      -1.94026000       0.02789310       0.60508600       0.50858424
Si       1.35845000       1.48632000       1.27358000       0.07412170      -0.34292000       0.61169300       0.49093920
Si       3.98999000       4.04650000       1.40091000       0.78117800      -1.71219000      -1.23457000       0.51853279
Si       1.49983000       4.14850000       4.12259000      -1.57301000       0.55936100      -1.04164000       0.45934255
Si       4.03176000       1.33348000       3.99029000       2.12759000      -1.04895000      -0.23713700       0.47709396
Si       5.55468000      -0.21824700      11.01680000      -0.35860700       1.35464000      -1.10059000       0.47323332
Si       8.22312000       2.70469000      10.82620000       0.58963200      -0.33596700       0.55399200       0.46078942
Si       5.42798000       2.60222000       2.58812000      -0.70270200       1.21932000       0.85395600       0.48437252
Si       8.15987000       0.14953100       2.87656000       0.37195300      -0.92104800      -0.86099800       0.50954256
Si       6.88947000       1.38316000       1.36276000      -0.05630220      -1.21925000      -0.59868000       0.48347938
Si       9.45803000       4.13151000       1.46904000       1.00699000      -1.11436000      -1.90368000       0.50512293
Si       6.75772000       4.08235000       3.86126000      -0.29294700       0.06433020       0.31750300       0.48180123
Si       9.47112000       1.54313000       4.21992000      -0.42050200      -0.11165800      -0.72868600       0.52159475
Si      10.94500000       5.19720000      -0.11994500      -0.02621610       0.49535500       2.10796000       0.50709890
Si       2.58638000       8.08071000      -0.11452300       0.38705100      -1.84951000       0.19622500       0.48821964
Si       0.06982360       8.17006000       2.78204000      -0.10420300      -0.19635800      -0.51799800       0.49442089
Si       2.88711000       5.50084000       2.70204000      -2.34670000       0.13221800       0.87925600       0.47267580
Si       1.30127000       6.67581000       1.36891000       0.53984200       0.46249400      -0.58876000       0.51866049
Si       3.82455000       9.47458000       1.14800000       1.79829000      -0.48256800       2.32147000       0.44362511
Si       1.23909000       9.66969000       4.09826000       1.55061000       0.07113580      -0.06892890       0.53701002
Si       4.01030000       6.83218000       4.22558000       0.31914300      -0.37144500       1.10096000       0.53966589
Si       5.36971000       5.26522000       0.06187070      -0.58025400       1.15080000      -0.80361500       0.48633684
Si       8.32737000       8.01244000      10.94610000      -0.80532200       0.58889400       0.84156500       0.47448108
Si       5.16177000       8.16312000       2.79663000       0.36460100       0.46948200      -2.33516000       0.52459668
Si       8.07773000       5.53330000       2.60292000      -0.99138800       0.80603700       0.14139000       0.50698100
Si       6.50392000       6.83993000       1.27257000       1.88175000       0.33114200       1.08603000       0.45353674
Si       9.61098000       9.61312000       1.55252000      -1.27884000      -0.70380400      -1.10931000       0.50822587
Si       6.70961000       9.46250000       3.93967000       1.75935000      -0.50312200       2.05574000       0.50173408
Si       9.44434000       6.87150000       3.96205000      -0.35742100      -0.21740000       1.46871000       0.44526627
Si      10.77930000      11.03210000       5.47294000       0.08116030      -1.14187000       1.25679000       0.50799180
Si       2.84093000       2.71332000       5.28298000      -0.68674700       0.09731910       1.50565000       0.54187537
Si      -0.00587929       2.71181000       8.05644000      -1.38795000       1.39662000      -0.78143400       0.53053863
Si       2.70518000       0.18231400       8.15839000       0.45127700      -0.97821100      -0.10584600       0.48113156
Si       1.40129000       1.52610000       6.71125000       0.18883800      -1.00329000      -0.30807000       0.47709396
Si       4.22265000       3.88761000       6.73439000      -2.12493000       2.66669000      -0.66547900       0.51737002
Si       1.46570000       3.96352000       9.35844000      -1.59475000      -0.44260600       0.21018900       0.49059906
Si       4.27165000       1.24475000       9.53242000       0.39958700       1.08172000      -0.26829800       0.44735942
Si       5.58338000      10.88520000       5.37091000      -2.28349000       0.08937410       0.97846100       0.56470911
Si       8.01477000       2.90778000       5.38949000      -0.30713000      -1.36496000       0.58435600       0.47857430
Si       5.52393000       2.91152000       8.17307000       0.05152100      -4.23980000       1.09296000       0.49655705
Si       8.08463000      -0.12468400       8.39981000      -0.39996500       0.31400400      -2.37653000       0.46078942
Si       6.81322000       1.39413000       6.88770000       0.73590500      -0.08270230      -0.16320000       0.50231157
Si       9.28620000       4.24930000       6.70043000       2.44586000      -1.63709000       1.04443000       0.46357517
Si       6.78762000       4.03329000       9.62095000       0.96144800       0.91164600      -0.16714800       0.47514917
Si       9.55575000       1.27734000       9.39641000       0.28868300       0.87978400       1.96101000       0.48437252
Si      10.74320000       5.51114000       5.40005000       1.79721000       0.45854700      -0.46719700       0.45546149
Si       2.66004000       8.36988000       5.53927000       0.98960700       0.15766700      -2.18557000       0.46776036
Si      10.97170000       8.03105000       8.08799000      -0.42631700       0.56172400       1.38906000       0.49968979
Si       2.64202000       5.29495000       8.02900000       2.88221000       0.66298800      -0.95669800       0.50894561
Si       1.54922000       6.85673000       6.66876000      -2.89946000      -1.93207000       0.76135600       0.52120133
Si       4.06356000       9.57465000       6.89002000       0.71127900       1.56535000      -1.07937000       0.50303204
Si       1.43296000       9.54996000       9.48811000      -1.67487000       0.18508700      -0.83310500       0.49508423
Si       4.03973000       6.62297000       9.47476000      -0.50441900       0.42879700      -0.27860000       0.50167481
Si       5.54014000       5.29731000       5.43437000      -1.08161000       1.47238000      -0.42102600       0.46248699
Si       8.15433000       8.07598000       5.62953000      -0.66847100       1.27948000      -2.62028000       0.50087764
Si       5.35519000       8.13469000       8.13245000      -0.26157500      -0.86412300       1.27460000       0.50251127
Si       8.11639000       5.38766000       8.24777000      -1.28553000       1.04401000       0.05858320       0.49093920
Si       6.70952000       6.78904000       6.86716000       0.70222300      -1.31743000       0.12928300       0.47696150
Si       9.48941000       9.48831000       6.93818000       0.50419600       0.54957900      -0.52748300       0.50561849
Si       6.77551000       9.25329000       9.61745000       0.59805200       0.22529300       0.40305400       0.47589030
Si       9.59740000       6.57558000       9.56045000       0.30165600       1.73271000      -1.16403000       0.50620029
