64
Lattice="10.862 0.0 0.0 0.0 10.862 0.0 0.0 0.0 10.862" Properties=species:S:1:pos:R:3:atomic_forces_forces:R:3 co-id=CO_517215451662840113 energy_energy=-342.01903 energy_per_atom=F cauchy_stress_stress="_JSON [0.013941611499016076, 0.013712447625799234, 0.011840834995162601, 0.0017370749665603909, -0.00046085276767508803, 0.0011632499662049744]" cauchy_stress_volume_normalized=F pbc="T T T"
Si      10.72310000       0.28177000      10.78030000      -0.54497400      -0.30833700      -0.27355300
Si       2.70350000       2.70680000       0.03685430       0.03053170      -0.34541500      -0.51021200
Si       0.09584860       2.59830000       2.81112000      -0.59370800       0.26125900       0.46301000
Si       2.81072000      10.83850000       2.66985000      -0.28764300      -0.35488400      -0.21779200
Si       1.32945000       1.32505000       1.37813000       0.76072600      -0.02819340      -0.11774400
Si       4.01037000       4.11597000       1.34974000       0.46416000      -0.19911900       0.07362410
Si       1.39045000       4.02570000       4.15255000       0.32097800      -0.20626000       0.16510200
Si       4.18430000       1.38854000       3.94094000      -0.74096200      -0.63485200       1.21839000
Si       5.48617000       0.01030720      10.79610000      -1.07818000       0.36466400      -0.77186600
Si       8.18336000       2.80209000       0.03730000       0.19169400      -0.63828800      -0.08878020
Si       5.42597000       2.71828000       2.61261000       0.79842100       0.46984400      -0.05017710
Si       8.13817000      10.73090000       2.48971000       0.38237100       1.06796000       1.24393000
Si       6.77832000       1.31033000       1.25171000       0.49980300       0.83546500       0.51673900
Si       9.62247000       4.02015000       1.54049000      -0.77768500      -0.69537200      -0.32967900
Si       6.85162000       4.05940000       4.03820000      -1.18889000       0.16738900      -0.34997200
Si       9.42440000       1.34418000       4.11135000       0.55336900      -0.76789200      -0.07733880
Si       0.08180000       5.19996000       0.16897500      -0.45645000       2.03754000      -0.40374900
Si       2.73899000       8.25597000      10.81910000      -0.72012400      -0.42184300       0.07239310
Si       0.05888120       7.96576000       2.71954000       0.08446370       1.01699000      -0.71819500
Si       2.79085000       5.40837000       2.84196000      -0.24716900       0.18841200       0.00497994
Si       1.54635000       6.67188000       1.30596000      -0.72519400       0.60723200       0.40207400
Si       4.21862000       9.42977000       1.27574000      -1.10649000       1.23636000      -0.06909630
Si       1.41592000       9.47354000       4.05934000      -0.41484500       0.02550040       0.04805600
Si       4.02327000       6.89928000       4.18971000       1.06729000      -1.01673000      -1.04591000
Si       5.39580000       5.40466000      10.81100000      -1.00875000       1.15978000       0.84276300
Si       8.00113000       8.15082000       0.05540000       0.57437400      -0.30150200      -0.22845900
Si       5.40033000       8.15148000       2.67308000       0.25019900      -0.63349900       0.98503600
Si       8.18194000       5.38471000       2.73789000      -0.45859900       0.14056500      -0.68044800
Si       6.74064000       6.74544000       1.40922000       0.04587530      -0.39846000      -0.30895200
Si       9.52965000       9.48198000       1.15533000       0.78164700      -0.42775700       0.97063200
Si       6.85931000       9.45652000       3.95447000      -1.47715000       1.26938000       0.01531480
Si       9.49743000       6.64693000       4.06567000       0.38544700       1.06043000       0.22297200
Si       0.10720000      10.84680000       5.57614000      -1.01766000      -0.33255100      -1.53556000
Si       2.79839000       2.58982000       5.50542000      -0.34342100       0.09075700      -1.19277000
Si       0.04355170       2.89707000       8.02261000       0.73802300      -1.43244000       0.94347000
Si       2.62139000      10.74730000       8.22613000       0.76135700       0.38436500      -0.28457000
Si       1.42300000       1.31347000       6.86971000      -0.27784400       0.65015700       0.13461300
Si       4.01883000       4.07859000       6.69812000       1.17627000       0.50930500       0.35820900
Si       1.33003000       4.07506000       9.57259000       0.91050600      -0.43856400      -1.03673000
Si       4.03381000       1.44975000       9.32371000       0.08368380      -0.80212300       1.36673000
Si       5.36216000       0.02700000       5.47144000       1.74944000       0.71566100      -0.98996500
Si       8.16760000       2.87557000       5.43039000       0.33325700      -0.97314700       0.30270300
Si       5.45689000       2.82295000       8.13306000      -0.37387800       0.31483200      -0.02110460
Si       8.15403000      10.84660000       7.98942000      -0.38678600      -0.40644700       0.04166340
Si       6.84907000       1.56080000       6.82744000      -0.49368700      -1.33235000      -0.78691700
Si       9.47650000       4.12875000       6.90168000      -0.92862100       1.08246000      -0.87885700
Si       6.74227000       4.10350000       9.63491000       0.51580000      -0.55057800      -0.90861000
Si       9.34211000       1.54364000       9.15481000       0.87247700       0.00167624       1.75328000
Si      10.85620000       5.40148000       5.46999000      -0.22237100      -0.32844700      -0.25636300
Si       2.73447000       8.14031000       5.50848000      -1.46576000       0.17210700       0.44603200
Si      10.81570000       8.11898000       8.42669000      -0.43153400      -0.24922200      -1.97347000
Si       2.68773000       5.39230000       8.06992000       0.09173430       0.06935350       1.04169000
Si       1.24214000       6.67990000       6.87425000       0.41517200       1.72220000       0.13713300
Si       4.07079000       9.55066000       6.72552000      -0.29881800      -0.49857300       1.42734000
Si       1.14879000       9.62775000       9.63678000       1.08471000      -0.45494200      -0.00735539
Si       3.99230000       6.84900000       9.45768000       0.53044600      -0.54324800      -0.18813700
Si       5.51342000       5.49091000       5.38981000      -0.60735400      -0.36905500       0.35157800
Si       8.05812000       8.12280000       5.23923000       0.95623800      -1.08279000       1.81290000
Si       5.45761000       8.18018000       8.13615000      -0.76751400       0.44778100       0.22330200
Si       8.03431000       5.47625000       8.28202000       1.10007000      -0.09400310       0.03677080
Si       6.75877000       6.79627000       6.90236000       0.51570300       0.19642300      -1.43064000
Si       9.47323000       9.40654000       6.66946000       0.39091800      -0.18679400       0.91867000
Si       6.82427000       9.54338000       9.48645000       0.08515510      -0.03721910      -0.62412200
Si       9.48909000       6.75633000       9.73883000      -0.06025020      -0.77495400      -0.18398900
