48
Lattice = "8.39999961853 0.0 0.0 0.0 8.39999961853 0.0 0.0 0.0 12.6000003815" Properties=species:S:1:pos:R:3:forces:R:3 energy=-555.922478 stress="44249.71 -651.04 -186.65 -651.04 44112.909999999996 -1023.35 -186.65 -1023.35 43244.3"
Ta 0.06343 8.3606 12.52321 -0.696701 0.940785 0.465297
Ta 2.13463 2.12169 0.0276 -1.12333 0.576705 -0.026641
Ta 2.07364 8.36228 2.04043 -0.26239 0.268211 0.488051
Ta 8.37571 2.16668 2.14254 0.418469 -0.605551 -0.528424
Ta 4.12651 0.04419 0.00196 0.983012 -0.612252 -0.323205
Ta 6.25688 2.11357 0.01148 0.864439 -0.555613 0.554016
Ta 6.35803 0.02339 2.17882 0.004319 -0.071235 -0.60434
Ta 4.12492 2.02962 2.07119 0.768236 0.704677 0.998809
Ta 8.32267 4.2038 0.03156 0.384971 -0.156549 -0.15821
Ta 2.13999 6.25061 0.01163 0.206046 -0.408259 -0.573426
Ta 2.16033 4.27176 2.10974 -0.144662 -0.316522 0.257436
Ta 0.07325 6.34677 2.09878 -0.79538 -0.463238 0.011227
Ta 0.03163 8.35134 4.23884 0.243806 0.858804 0.059427
Ta 2.09614 2.16903 4.20803 0.184215 -0.612876 -0.414497
Ta 2.15726 8.37369 6.37727 -0.165489 0.100422 -0.659123
Ta 0.02483 2.126 6.26528 -0.175983 -0.609909 0.638816
Ta 8.38466 8.32281 8.34428 0.169266 -0.211404 0.509213
Ta 2.03906 2.07515 8.33331 0.465788 0.459079 0.436569
Ta 2.10907 0.07467 10.53386 0.194596 0.006574 -0.731867
Ta 8.33297 2.17086 10.43991 0.550055 -0.386364 0.529968
Ta 4.27897 4.1393 0.00645 0.009889 0.528282 0.483017
Ta 6.32729 6.28968 12.57566 -0.264177 0.642002 0.143135
Ta 6.36828 4.23582 2.14993 -0.643207 -0.021355 0.110192
Ta 4.26013 6.31388 2.06529 0.111216 0.212384 0.388281
Ta 4.14382 0.05221 4.19611 0.133795 -0.272342 0.110067
Ta 6.35676 2.13277 4.27931 -0.64253 -0.80079 -0.286094
Ta 6.34512 8.331 6.35294 -0.428755 0.834939 -0.239901
Ta 4.2156 2.15214 6.2277 0.270035 -0.158319 0.779826
Ta 4.21566 0.03803 8.38231 0.083944 0.274668 0.537654
Ta 6.36545 2.10057 8.38811 -0.533646 0.09587 -0.966206
Ta 6.3135 0.07881 10.48441 -0.274002 -0.668893 0.02457
Ta 4.26171 2.16526 10.52074 -0.418059 -0.459074 -0.898808
Ta 8.3812 4.12205 4.26058 0.319127 1.186909 -0.691015
Ta 2.03751 6.37506 4.22969 0.912322 -0.679112 -0.028629
Ta 2.10316 4.17066 6.25287 0.262251 0.67613 0.437224
Ta 0.01168 6.26992 6.26445 0.470148 -0.110432 0.580066
Ta 0.00065 4.25404 8.40936 0.720462 0.320078 -0.095225
Ta 2.15141 6.3154 8.39974 -0.210605 -0.239741 0.525179
Ta 2.10941 4.11716 10.53789 -0.294631 0.328036 -0.2806
Ta 0.02774 6.34503 10.55194 0.052179 -0.561462 -0.610592
Ta 4.27746 4.26322 4.25824 -0.303269 -0.080042 -0.881987
Ta 6.32942 6.36807 4.26719 -0.071872 -0.096612 -0.894702
Ta 6.34514 4.25616 6.31634 -0.236463 -0.645396 0.127271
Ta 4.26742 6.30384 6.28532 -1.015367 0.203758 -0.319441
Ta 4.19566 4.27408 8.40465 -0.669454 -1.290586 -0.449496
Ta 6.21853 6.2172 8.36939 0.704437 1.092583 0.697829
Ta 6.30129 4.2155 10.41714 0.33095 0.1172 0.467289
Ta 4.23757 6.23742 10.53163 -0.447998 0.665832 0.302002
