48
Lattice = "8.39999961853 0.0 0.0 0.0 8.39999961853 0.0 0.0 0.0 12.6000003815" Properties=species:S:1:pos:R:3:forces:R:3 energy=-555.800269 stress="44944.52 20.43 -53.49 20.43 46278.61 29.84 -53.49 29.84 42171.32"
Ta 8.39366 0.03327 12.53757 0.281471 -0.21858 0.714835
Ta 2.13799 2.17663 0.08107 -0.242623 -0.691544 -0.821606
Ta 2.1586 0.00804 2.08871 -0.840779 0.227491 0.043738
Ta 0.07616 2.11667 2.10673 -0.564953 -0.14659 -0.53106
Ta 4.15103 0.01208 0.04902 0.594481 0.453625 -0.068399
Ta 6.25134 2.11148 12.51753 0.377615 -0.192108 1.200692
Ta 6.34616 0.06815 2.1539 0.172975 -0.678259 -0.601449
Ta 4.25478 2.13099 2.16677 0.103092 -0.008648 -0.297252
Ta 8.32309 4.25914 0.06259 0.571757 -0.370889 -0.326093
Ta 2.18289 6.3341 0.04696 -0.829016 -0.174777 -0.58409
Ta 2.17634 4.18641 2.09151 -0.422429 0.255137 0.485834
Ta 0.06508 6.22975 2.07834 -0.463567 0.907706 -0.064984
Ta 0.03316 8.35006 4.12414 -0.730534 -0.238153 0.413363
Ta 2.082 2.07294 4.20331 0.425673 -0.20545 -0.321985
Ta 2.12216 0.0105 6.23718 0.020646 -0.010904 0.435072
Ta 0.03286 2.07054 6.23343 -0.520711 -0.034403 0.247056
Ta 8.36331 0.02515 8.43591 0.078206 -0.188894 -0.203212
Ta 2.01725 2.02047 8.37346 0.945609 0.479423 0.375213
Ta 2.13829 8.32424 10.45876 -0.581344 1.386424 0.908562
Ta 8.35549 2.12524 10.51529 0.852839 -0.295749 0.265562
Ta 4.16491 4.22554 0.0009 0.715672 -0.095676 -0.213922
Ta 6.22371 6.32022 12.53036 0.187246 0.040385 0.908943
Ta 6.36757 4.22353 2.09189 -0.874971 0.203062 0.00729
Ta 4.13315 6.3638 2.09505 0.977658 -0.635482 0.37092
Ta 4.23722 8.33801 4.14924 0.176574 0.229478 0.507526
Ta 6.35365 2.15131 4.17453 0.12327 -0.302231 0.057467
Ta 6.24548 0.08185 6.31737 0.13665 -0.415086 -0.30141
Ta 4.2241 2.07465 6.23581 0.013977 0.192163 0.497879
Ta 4.19905 8.3678 8.46852 0.198161 0.792819 -0.702669
Ta 6.2848 2.06186 8.4824 -0.027942 0.482082 -0.848532
Ta 6.29377 8.32663 10.54116 0.105969 0.400999 0.031916
Ta 4.27399 2.1012 10.56089 -1.346927 0.176649 -0.650846
Ta 0.04908 4.20115 4.17826 0.10887 0.65821 0.312297
Ta 2.06654 6.36455 4.27901 0.165742 -0.555047 -0.271572
Ta 2.17095 4.16446 6.22477 -0.421266 -0.000369 0.715516
Ta 8.32881 6.3256 6.36766 0.454331 0.163972 -0.301611
Ta 0.05742 4.18749 8.33872 0.082852 0.081218 0.003436
Ta 2.15697 6.37663 8.42585 -0.958747 -0.720851 -0.438235
Ta 2.03852 4.15529 10.56738 0.183579 0.144348 -0.516283
Ta 0.0099 6.30552 10.54233 0.385985 -0.309035 -0.170827
Ta 4.16427 4.18342 4.16227 0.140605 0.544738 -0.035124
Ta 6.24236 6.2516 4.26779 0.391419 0.304507 -0.502905
Ta 6.3071 4.18976 6.23024 -0.166338 -0.369336 0.911871
Ta 4.13743 6.24505 6.36665 0.716072 0.416956 -0.252837
Ta 4.20011 4.24099 8.46012 -0.222169 -0.850244 0.096683
Ta 6.34341 6.33047 8.43181 -0.209113 -0.500978 -0.235576
Ta 6.38029 4.16076 10.48343 -0.380969 0.906191 -0.2817
Ta 4.17561 6.36228 10.50253 0.115399 -1.2383 0.032512
