170
Lattice="24.86876934 0.0 0.0 12.43438517 21.53698605 0.0 0.0 0.0 15.66732542" Properties=species:S:1:pos:R:3:user_label2:R:1:forces:R:3 energy=-1158.57198259 config_type=Defects virial="-118.64182464 8.85549572 -5.95979737 8.85549572 -187.28738057 0.78791631 -5.95979737 0.78791631 -26.99663107" cutoff=-1.0 nneightol=1.2 user_label1=215.0 pbc="T T T"
C       13.75969139      11.41942689       8.08888344   13047.00000000       4.37310876      -4.28246703      -0.94068056
C       16.29957611      11.52627188       8.42638897   13048.00000000       1.59542042      -4.89414488      -2.22879027
C       18.85179571      10.39301721       8.85268122   13049.00000000       2.18604066       3.21895410       6.34943336
C       15.17211319      13.48572841       8.39915915   13050.00000000      -0.98679965      -2.15450363      -0.12189244
C       17.53238322      13.47707054       8.88003637   13051.00000000       0.66230254       1.61288694       0.66285287
C       19.88711997      14.47446990       8.37606552   13052.00000000      -2.29735781      -3.93994157      -1.50903620
C       26.43541510      14.52383267      10.97557248   13053.00000000      -0.73218348       4.01446667      -0.83195896
C       16.09107644      15.54442737       8.83922299   13054.00000000       3.28045940       0.92911118      -1.91328590
C       18.53463199      15.91464816       9.22233610   13055.00000000      -2.47285111       1.19240730      -1.15529005
C       20.94221485      15.92853951       9.79450682   13056.00000000      -0.03738555       3.74928763      -1.23088548
C       23.19359700      17.02707656      10.24271767   13057.00000000       6.18550923       1.42891702       1.16140396
C       25.89575044      17.22872736      10.51709954   13058.00000000      -0.53883694      -7.04309683       0.65236132
C       17.09003009      17.96608915       8.93411998   13059.00000000       0.51083907      -1.10421391      -0.06776714
C       19.56419909      18.14493228       9.61484960   13060.00000000      -1.60908076       0.43184173      -0.53812822
C       24.64273754      19.02400744       9.69243420   13061.00000000       1.39741845      -2.71104792       0.81896472
C       26.90912794      17.97575926       9.97220563   13062.00000000       3.13863561       1.70310452      -3.60841764
C       18.46792161      19.99071660       8.40188527   13063.00000000       1.86427920      -0.63975879       1.27346986
C       21.03375688      20.02151449       8.95906236   13064.00000000      -0.65780490      -0.50190406       0.48696807
C       24.06746078      21.14770503       8.90255032   13065.00000000      -0.41192265       3.44277536      -1.20292637
C       26.46647634      20.50125085       8.92550295   13066.00000000      -3.32164163      -2.72795332       0.37245970
C       12.82892770       0.02046014       8.64057697   13067.00000000       4.39522332       1.75895843      -0.71995745
C       22.21308366      19.76591354       9.34831706   13068.00000000      -0.51676097       1.14809732      -0.66055706
C       23.91813605      12.45165156       6.68216129   13069.00000000      -2.32047880      -2.01680437      -0.55870278
C       19.61406079      10.24331362       7.66613200   13070.00000000      -1.78474033      -0.73846122      -0.38194532
C       17.39344138      12.08203380       9.08382127   13071.00000000       3.23447691       0.83258765       2.04240845
C       18.36987628      11.16173685       9.98251473   13072.00000000      -0.84158499       0.43559141      -3.12701227
C       21.67512229      13.46160698       6.25563403   13073.00000000       1.68740659      -2.60484473       0.25298759
C       16.35221092      14.13403476       8.68178204   13074.00000000      -0.40829776       1.22606452       0.99370532
C       18.58775164      14.47378072       8.77437593   13075.00000000       1.28248297       0.56385219       1.39057292
C       20.86857840      14.85642835       8.96699003   13076.00000000       3.78372733       0.35749590       1.64461378
C       26.17428062      15.82494661      10.76986050   13077.00000000       0.69267955      -2.92637382       0.90501709
C       17.22465714      16.51736071       8.98809392   13078.00000000       0.12869074      -0.67218034       1.71556404
C       19.73297096      16.79811686       9.51995261   13079.00000000      -1.51308849      -3.16211176       0.73224745
C       22.06158304      16.66286459      10.12367733   13080.00000000      -1.67166305      -1.97092938       0.22782430
C       24.53764208      17.56461819      10.28433008   13081.00000000      -2.84121448       4.16880203      -1.46907725
C       18.36794913      18.76142851       9.14700760   13082.00000000      -0.52592404      -0.95198279      -1.17712202
C       23.64701691      20.04787576       9.41236509   13083.00000000      -2.77571009      -6.29740670       1.52767735
C       26.05140411      19.13832577       9.37363546   13084.00000000       0.81547866       2.69671963       0.92675878
C       19.82782054      20.63880758       8.43748143   13085.00000000      -0.09016000      -0.66001492       0.28441246
C       15.06114871      12.06445962       8.27078109   13086.00000000      -1.42355228       1.93129443      -0.11231130
C       27.62655470      20.93323972       8.54314187   13087.00000000       2.38495664       3.00855033      -1.22239403
C       18.21536389       0.94286340       7.43988015   13088.00000000      -1.10761614      -1.19382142      -1.00487148
C        7.56121255       0.45914701       7.97574968   13089.00000000      -2.28635803      -0.03121956      -1.65421263
C       15.53749480       0.69975391       8.12451094   13090.00000000       1.65457560       0.19092244      -0.55060603
C        8.76479887       2.66442669       7.63238458   13091.00000000       0.93484905      -2.45765397      -0.04659411
C       11.47639001       3.28133212       7.80629189   13092.00000000      -0.39097292       1.17274256       0.43381067
C       16.63217083       2.80357716       7.60012556   13093.00000000      -2.73910519      -3.18943849       0.41040355
C       19.03746578       3.34042961       7.24146914   13094.00000000      -0.97040008       0.48043609      -0.50044705
C        9.87265285       4.82325110       7.23363548   13095.00000000       2.97916051      -1.36501855       1.87094985
C        8.28989257       9.51407127       7.99245105   13096.00000000       4.99371186       0.88034389      -0.34535908
C       13.50798200       5.34261552       7.75291331   13097.00000000      -0.75600796       0.60721496       0.33911679
C       17.05896870       5.08296561       7.13977253   13098.00000000       2.94622602      -0.09616165       0.68213957
C       19.04375763       5.72793374       7.27996376   13099.00000000       4.00315923      -0.83196731      -0.14326265
C       11.09681807       7.03936389       7.66868577   13100.00000000       1.68998568       0.57150202       1.45308547
C       13.60199842       6.93887231       7.74106882   13101.00000000      -4.67387656      -2.62950472       0.79645326
C       15.75481318       6.96135693       6.87471272   13102.00000000      -0.52501772      -1.42925973       1.66534952
C       22.20635634       5.95280141       7.25870320   13103.00000000      -2.17632897       0.68952153       0.48419161
C       12.31942900       9.17098708       7.99315608   13104.00000000       2.03101654       0.29826739      -0.79715725
C       14.73443519       9.11779073       7.28980284   13105.00000000       0.50140802      -1.88017172       0.34491740
C       16.25622979       9.22771551       7.00891903   13106.00000000      -1.82129808      -0.31983896       2.01187920
C       13.22113433       1.37793852       8.17561775   13107.00000000       0.22577089      -1.63280352       1.07210032
C       18.17555169      10.15712260       7.77993945   13108.00000000      -0.03943030      -1.32254945      -5.25060097
C       22.08630247      11.02026039       6.17312989   13109.00000000       2.24949747       2.52851294       0.78537508
C        8.70598171       1.20744528       7.85677201   13110.00000000      -0.39102367       1.98291188       0.06903049
C       14.54601181       1.78751815       8.00113075   13111.00000000       0.83673065      -0.50204327       0.08110029
C       16.82197048       1.29409503       7.73837404   13112.00000000       1.94164397       2.17221795      -0.13498620
C       19.18683130       1.88768021       7.03289004   13113.00000000       3.00316724       0.71600325       0.79307792
C       10.00566343       3.38852170       7.49443378   13114.00000000       1.60542104       3.05523765       0.13279849
C       12.17206900       4.83552718       7.94772084   13115.00000000      -0.30808068      -1.72037546      -1.21088726
C       15.19754127       3.06882668       7.72366242   13116.00000000      -0.74136401       2.16744460      -0.74548459
C       17.60130679       3.74435578       7.39062208   13117.00000000       0.71656564       1.01993149      -1.00723946
C       19.89269035       4.54889143       7.17106018   13118.00000000       0.77309202       1.45187529      -0.05418070
C        9.82964242       9.19859750       7.83280101   13119.00000000      -1.71781746       1.43149917       0.14524616
C       11.07528169       5.62416854       7.69958174   13120.00000000      -1.78765406      -0.61449635      -1.84166357
C       17.91012723       6.38220584       7.26645853   13121.00000000      -0.84886988       0.75292382      -1.28429568
C       21.50967017       4.77630047       7.00063102   13122.00000000      -2.74004604       0.26811741       0.46088611
C       12.34743120       7.67227130       7.96990577   13123.00000000      -0.31741821       1.33640227      -1.26343362
C       14.60440879       7.68956550       7.26747690   13124.00000000       0.83147760       0.15564964      -1.07262797
C       16.96316182       7.60518359       7.08072238   13125.00000000      -1.09480781       0.06487151      -0.99655978
C       13.62885676       9.89172232       7.82421531   13126.00000000       1.04299103       0.58153010      -0.22806107
C       16.77044136      10.35500443       7.56476440   13127.00000000       2.18008936      -0.59744673       1.42599719
C       12.19205100       2.22388764       8.05585672   13128.00000000      -1.34883509       0.31178369      -0.50881577
C       15.77504389       5.51504063       7.04449953   13129.00000000      -2.04497568      -1.69471733       0.55492102
C        5.46412887       7.50759950       8.82082955   13130.00000000       1.94612114       5.28705933       2.55774850
C       24.44542851       9.94595245       6.56594107   13131.00000000       0.69905624       1.78139524       0.75364702
C        8.72977130       6.94397658       7.27731598   13132.00000000       3.89917517      -1.44796825      -1.13037565
C       14.93733973      20.23350304       6.93611297   13133.00000000      -0.15221522       0.97491668       0.30813008
C       27.46067980      12.11349934       9.67230168   13134.00000000       0.55945015      -1.44683142      -1.38033066
C       13.65927895      19.56189367       6.97191281   13135.00000000      -0.09839486      -1.54958930       0.87179007
C       11.22676993      11.55112556       8.05642074   13136.00000000       1.51369225      -0.51086264       0.35767181
C       30.20033542      15.55246066       9.38128111   13137.00000000       1.36509603      -2.26588203       0.24380236
C       32.47560397      14.49111799       8.32752814   13138.00000000      -0.56968315      -0.05588659       2.24962980
C       10.15433167      13.90944707       7.98062222   13139.00000000       1.77654444       1.16422890      -0.77159443
C       12.79612611      13.85461390       8.11865136   13140.00000000       0.20059841       0.26791633      -0.82296747
C       28.40282082      17.37625572       9.50524099   13141.00000000      -5.39024367       1.92920541       1.69098133
C       31.62458231      16.79796610       7.83273834   13142.00000000      -1.23192735      -0.17149385       1.28559121
C       33.77740948      15.98935996       7.06021386   13143.00000000       1.86162762      -0.17224371       1.49349384
C       30.14801161      18.90266806       7.83775188   13144.00000000       1.58741157      -2.11938930      -0.18240107
C       34.84619462      17.98601086       6.64003186   13145.00000000      -2.84485769      -5.83869435       0.12179952
C       12.18649816      17.50592991       7.37564412   13146.00000000       1.65350867       0.66153253      -1.57137773
C       14.73358984      17.34319644       8.12081345   13147.00000000      -1.33412766       3.49044206      -1.56630579
C       31.22306369      21.08897367       7.17973988   13148.00000000      -0.34922423       3.24162350       0.15685471
C       33.48494041      19.98694763       6.65353709   13149.00000000       1.45559029       0.68557102       0.24760399
C       29.77419653      11.24387892      10.15924216   13150.00000000      -0.81252673       0.95391884      -0.85113839
C       12.50738741      20.28478261       6.47196846   13151.00000000       1.28461764       0.06162081       0.22177039
C       34.83849780      20.55759161       6.38990301   13152.00000000       0.84951386      -4.49347033       0.90048105
C       32.60420053      21.11451653       6.76167297   13153.00000000      -1.48372372       0.94078055       0.70539268
C       31.34635043      13.01572676      10.61599170   13154.00000000      -1.25938474      -0.62747761      -1.08583944
C       10.18253033      12.50637704       8.11398250   13155.00000000       1.50047759      -0.09174393      -0.38068725
C       12.70188587      12.15196440       8.18692956   13156.00000000      -7.40651761       5.53680009      -0.68356103
C       29.54852501      16.75232923       9.10888900   13157.00000000      -0.22586537       1.66438002      -0.34494219
C       31.40200679      15.37781724       8.69212247   13158.00000000       2.55882465       0.88457648      -3.22690590
C        8.94464262      14.69248881       7.80369112   13159.00000000      -3.55933451       1.41381453      -0.18426664
C       11.56980981      14.78343950       7.84967472   13160.00000000      -0.21146851      -4.05357914       0.24104233
C       14.17493774      14.35571496       8.11570590   13161.00000000      -4.25576235       2.76933146       0.44001057
C       36.08110140      19.76559048       6.65551117   13162.00000000       0.70819616       1.57101708      -1.50786313
C       30.46040062      17.54366271       8.17730983   13163.00000000      -1.60940067       2.46933656      -0.05115715
C       10.19403720      16.50760446       6.77647859   13164.00000000      -2.26112930       0.08757367       1.14656685
C       11.47916567      16.10415210       7.32383227   13165.00000000      -0.69946599       1.38992172      -0.00803623
C       14.87956948      15.84504062       8.26294743   13166.00000000      -1.50039692       2.11667795       0.83413102
C       30.46012713      20.04234076       7.40375130   13167.00000000      -0.60528148      -3.31434441       0.97012759
C       33.54927588      18.47225140       6.83471404   13168.00000000      -0.40512878      -0.00002638      -0.62394818
C       11.21017019      18.39006626       6.78841709   13169.00000000       2.80942175       3.28925738       1.97960030
C       13.52479359      18.16130039       7.56684816   13170.00000000      -0.56904529      -2.37151145      -0.61440595
C       15.84880496      18.45997532       8.35135814   13171.00000000       2.23365224      -2.15814370      -0.61731001
C       32.78770709      17.13762591       7.18903061   13172.00000000       1.21767986      -0.54668575      -0.49093463
C       14.69050440       4.55188508       7.46190841   13173.00000000       1.90001589       0.19328995       0.32386152
C       16.07890328      19.79675450       7.61281609   13174.00000000      -1.43879493      -4.28785636       1.95916529
C       22.65455236       0.26421359       5.96296839   13175.00000000      -1.36294659       2.49592985       0.44120089
C       20.50585464       1.10116456       6.66331350   13176.00000000      -3.07209535      -1.60545744       0.85353138
C       21.75889495       1.42586047       6.26772920   13177.00000000       0.52417926      -1.52304671      -1.81177972
C        7.34844301       8.58255355       8.03663291   13178.00000000      -3.31703872       1.28489551       2.25887731
C        0.25996854       0.02295218       5.84994430   13179.00000000      -1.62962271      -1.95050588       0.69776094
C        2.61497597       0.03273622       6.50118802   13180.00000000       1.08565340       0.54389600      -1.44415124
C        5.10694889       0.20029031       7.01012542   13181.00000000      -0.41453268       0.09113307       1.62365408
C       23.89157845       2.12363728       5.55727866   13182.00000000       0.74509516       0.96231516       0.71364571
C        1.43521204       2.08820032       5.78719666   13183.00000000       3.68489052      -0.75557812       0.84172859
C        3.82936776       2.20297523       6.41244829   13184.00000000       1.79799622      -2.62028407       0.93371421
C        6.21721726       2.52607309       7.13416363   13185.00000000       1.44320748      -1.11331538       2.28936937
C       22.50525403       3.86724583       6.48724410   13186.00000000       2.22443250       1.11881052       0.53969073
C       25.22169458       4.14115321       6.34377840   13187.00000000      -4.88566295      -1.30231225      -1.30041740
C        2.75882946       4.23802658       6.58283045   13188.00000000      -0.90263320      -2.66096067      -1.23229524
C        7.53353371       4.85415667       7.42324145   13189.00000000      -3.28806467      -0.57519876      -0.40514302
C       23.56968714       6.01982451       7.14870291   13190.00000000       2.90056819      -1.42747446      -1.81472663
C       25.92521967       6.14588049       6.76029425   13191.00000000      -4.87824421       5.70855097       1.54396620
C        4.35122901       5.54036812       7.89020609   13192.00000000      -4.52248086      -3.79806668      -2.77366543
C       23.92442633       0.69641783       5.56685140   13193.00000000       0.73120998       2.30269803       0.45035794
C        6.15163597       8.73518617       9.01883321   13194.00000000      -2.56238361      -5.99955747      -2.24867433
C       28.36015827      10.08781658       8.51107086   13195.00000000      -1.67590307       1.15898184      -0.14227994
C       26.22666658      11.19395618       7.83726619   13196.00000000       1.21904881      -2.21584118       0.23663202
C        1.47433257       0.64804791       5.95209526   13197.00000000       0.59280748       2.54551234      -0.68007010
C        3.88529759       0.77847590       6.53802190   13198.00000000      -0.11945294      -0.22149685       0.11645960
C        6.27885323       1.03500078       7.34847698   13199.00000000       0.36002244       0.73792362      -0.63620339
C       22.52192851       2.59830815       6.00147867   13200.00000000       2.76197897      -0.67144582      -0.45555112
C       25.18579648       2.84115920       5.71227551   13201.00000000      -4.07995572      -0.09453257       0.52987751
C        2.60812468       2.80069120       6.20350883   13202.00000000       0.20179380       2.77545441      -0.10128421
C        4.90376079       2.96846432       6.91264332   13203.00000000      -1.60435908       3.06746193      -0.25232349
C        7.51593902       3.34637382       7.53407211   13204.00000000      -2.97589489       1.31484164      -1.60728634
C       17.33486318      20.42147786       7.65806333   13205.00000000       1.71170430       2.11989046      -0.45217885
C       23.87035053       4.54617777       6.65342742   13206.00000000      -0.23142473       2.25906085      -0.00642168
C        4.04619364       4.50969412       7.10842222   13207.00000000       0.65937688      -2.40301312      -0.11590555
C        6.62809915       6.05391756       7.66624167   13208.00000000       1.76981832      -0.29256113       0.10012218
C        8.70207989       5.44364552       7.03450377   13209.00000000       1.99670614       3.36452464       1.14736719
C       24.74272214       6.88070091       6.94993155   13210.00000000       2.97330306      -4.64048543       0.13138155
C       26.74596374       9.08791893       6.97957413   13211.00000000      -0.59848050       3.02047594       1.54600425
C        5.33351060       6.17000191       8.34319547   13212.00000000       5.11720805       5.41697996       1.73773569
C        7.49027454       7.28311950       7.53916399   13213.00000000      -2.51437813      -1.11525100      -0.04787050
C        9.92794863       7.82156569       7.58472458   13214.00000000      -1.93239381      -2.88771404      -1.24237681
C       26.39201888       4.92117978       6.55314087   13215.00000000       0.90135076      -0.22632367       0.12001689
C       11.13964216       9.97657805       7.92780767   13216.00000000      -2.27410538       1.27757867       0.93791810
