64
Lattice="10.862 0.0 0.0 0.0 10.862 0.0 0.0 0.0 10.862" Properties=species:S:1:pos:R:3:atomic_forces_forces:R:3 co-id=CO_1648707025327346774 energy_energy=-270.89027 energy_per_atom=F cauchy_stress_stress="_JSON [0.0022994583444616943, 0.001920918118542552, 0.0025363809128427397, -0.006290066194429893, 0.00752689612583317, -0.0012758737541553322]" cauchy_stress_volume_normalized=F pbc="T T T"
Si       0.21490000      10.62570000       0.11320000      -0.08918670      -0.14665700      -0.71462400
Si       2.63813000       2.76067000      10.84980000       1.84374000      -0.92551700       0.00648225
Si      10.76400000       2.79426000       2.61849000       0.01874790       0.14313600      -1.34904000
Si       2.65653000       0.06550000       2.62646000       0.43991900      -0.00007346       2.12583000
Si       1.33535000       1.34158000       1.27880000      -0.47723900       1.32874000       0.95643700
Si       4.12469000       4.13377000       1.32433000      -1.86518000      -0.80525800       0.77256600
Si       1.29302000       4.05539000       3.98890000      -0.06278210       1.33259000       0.17272600
Si       4.08284000       1.38825000       4.12412000      -0.49949900       0.19191200      -1.49537000
Si       5.40450000      10.66570000       0.11050000       0.42567300       1.33710000      -0.03543920
Si       8.15848000       2.63210000       0.02680000      -0.47217800      -0.30991000       0.39467000
Si       5.45879000       2.80457000       2.71353000      -0.32261000      -1.79765000      -0.31344400
Si       8.25058000       0.08223370       2.91139000      -1.43169000      -3.16327000      -1.53952000
Si       6.81407000       1.18082000       1.48010000      -0.55523000       1.83920000      -0.71951300
Si       9.34493000       4.28442000       1.18037000       1.90731000      -1.00717000       1.01607000
Si       6.81293000       4.10475000       4.00463000       0.23686200       0.13288800       1.66700000
Si       9.54626000       1.42733000       4.04003000      -0.23408600       1.87719000       0.63899500
Si       0.03940000       5.55753000      10.70950000      -0.17078600      -2.45170000       0.73910500
Si       2.55021000       8.11151000       0.02727890       2.30622000      -0.00100081      -0.13935700
Si      10.64610000       8.23091000       2.72362000       2.88612000      -2.02873000       1.60035000
Si       2.64160000       5.51165000       2.66817000       0.87756900      -1.00590000       0.10095100
Si       1.21773000       6.78710000       1.36542000      -0.43661600       1.19238000       0.60914700
Si       3.96889000       9.48350000       1.42913000      -0.23491200      -1.13922000      -0.67086100
Si       1.28620000       9.56070000       4.07143000      -0.42520000       0.71335700      -0.08623470
Si       4.16746000       6.77009000       3.98760000      -1.52970000       1.12368000       0.12676500
Si       5.53249000       5.34289000       0.08094310       0.29757500       0.83684800      -2.48983000
Si       8.12186000       8.17121000       0.03050000       1.10984000      -1.53608000      -0.56429800
Si       5.50517000       8.22124000       2.66762000      -1.23096000      -0.36798400       0.75976000
Si       8.18650000       5.53225000       2.78107000      -1.22918000      -0.04408800      -1.03090000
Si       6.75104000       6.81651000       1.35396000       1.32017000      -0.13075200       0.55278000
Si       9.52788000       9.45856000       1.37394000      -2.04558000       2.11278000      -0.24237300
Si       6.68098000       9.51489000       4.20168000       2.35177000       0.00693434      -1.61701000
Si       9.41953000       6.85950000       4.17444000       0.77193200       0.05247090      -0.16010700
Si      10.76870000       0.21270000       5.44239000       1.77005000      -1.92517000       0.92641800
Si       2.63220000       2.75621000       5.35627000       1.21301000       0.34905500       0.33818600
Si      10.79600000       2.60150000       8.15924000      -0.74220400       0.60862300       0.60476300
Si       2.79836000      10.85900000       7.98361000       0.27540600       0.66105600       1.12232000
Si       1.39810000       1.51082000       6.80255000      -0.46544200      -1.88330000      -0.55136100
Si       4.08333000       3.99564000       6.79410000      -0.58412300       0.42842400      -0.41158600
Si       1.31246000       3.96491000       9.43482000      -0.57637900       1.30211000       0.18272500
Si       4.09923000       1.20933000       9.60951000      -0.22013700       1.30378000      -0.96447400
Si       5.41222000      10.85100000       5.42389000      -1.12740000      -0.32078300       2.28989000
Si       8.15585000       2.68126000       5.44615000      -0.50141200       0.21677100      -0.85115000
Si       5.47598000       2.62156000       8.11391000       0.14984200      -0.46324300       0.84292100
Si       8.18023000      10.75690000       8.34939000       0.78750700       1.48727000       0.30825400
Si       6.90855000       1.19762000       6.83369000      -0.72378500       0.76150100      -0.01518720
Si       9.54256000       4.07632000       6.65520000      -0.24474600      -0.40621500       2.00333000
Si       6.94183000       4.03900000       9.39056000      -1.50418000      -0.57885500       1.08358000
Si       9.68904000       1.16969000       9.85295000      -1.19193000       0.76948700      -2.81925000
Si       0.00980000       5.49210000       5.44011000       0.73978400       0.29396500      -0.91126800
Si       2.71997000       8.17989000       5.38851000       0.74708500      -0.48283500      -1.73428000
Si       0.06350000       8.21827000       7.94377000      -0.46850700      -0.16952400       2.81900000
Si       2.64014000       5.36122000       8.12273000       1.30581000       1.10676000       0.00599177
Si       1.43240000       6.93422000       6.72313000      -0.39978300      -2.65245000       0.01095230
Si       4.06433000       9.27555000       6.86101000       0.14183700       3.48830000      -2.17934000
Si       1.54028000       9.50454000       9.35711000      -1.90843000      -0.48629600       0.03163000
Si       4.12404000       6.77901000       9.56222000      -0.76325900      -0.56547300      -0.11840200
Si       5.36622000       5.42916000       5.40708000       1.16021000      -0.57549200       0.20892900
Si       8.09118000       8.17655000       5.51354000       0.26530600       1.04498000       0.03928110
Si       5.45909000       8.23866000       8.18581000       0.54321900      -2.99183000       0.76312600
Si       8.17974000       5.45398000       8.05893000       0.27907900      -0.25107200      -0.72728700
Si       6.75226000       6.82432000       6.75195000      -0.54862000      -0.52887900       0.95479300
Si       9.47495000       9.60175000       6.86423000       0.01396090      -0.08785480      -1.63905000
Si       6.78552000       9.45079000       9.57819000      -0.25085000       0.27450800       0.22019300
Si       9.54394000       6.74259000       9.42210000      -0.65175500       2.91242000      -0.90538700
