64
Lattice="10.862 0.0 0.0 0.0 10.862 0.0 0.0 0.0 10.862" Properties=species:S:1:pos:R:3:atomic_forces_forces:R:3:quests_descriptor_descriptors:R:63 PBC="1 1 1" energy_energy=-263.85375 quests_descriptor_num_nearest_neighbors=32 quests_descriptor_cutoff=5.0 quests_descriptor_species="_JSON [\"species-agnostic\"]" pbc="T T T"
Si      10.75020000       0.04682960      10.98780000       0.76980100      -0.58519600      -1.69297000       0.25919587       0.25805780       0.24073142       0.22859250       0.05604464       0.05422642       0.05219723       0.05011988       0.04603605       0.04121366       0.04102620       0.03939492       0.03917336       0.03792315       0.03576264       0.03338996       0.01859316       0.01649041       0.01573403       0.01375727       0.01070861       0.00728086       0.00648414       0.00576630       0.00427425       0.00418649       0.00242695       0.00190662       0.00000000       0.00000000       0.00000000       0.00000000       0.08426520       0.05932557       0.05739110       0.04965834       0.04477528       0.04108063       0.03280225       0.03134864       0.02872145       0.02660859       0.02426428       0.02303177       0.02159665       0.02045295       0.01963782       0.01862026       0.01757492       0.01614327       0.01452870       0.01307239       0.01145608       0.01038386       0.00914794       0.00818265       0.00735378       0.00610476       0.00495253       0.00000000       0.00000000       0.00000000       0.00000000
Si       2.80294000       2.59682000      -0.05179520       0.20978000       0.99246800       0.13273800       0.27654963       0.27132748       0.26695867       0.25834147       0.05834544       0.05483190       0.05059093       0.05031791       0.04648512       0.04410364       0.04374587       0.04207296       0.04102620       0.03848102       0.03639782       0.03203377       0.01445140       0.01324083       0.01291460       0.00892686       0.00867029       0.00832919       0.00789833       0.00703043       0.00695256       0.00557485       0.00471244       0.00445824       0.00000000       0.00000000       0.00000000       0.00000000       0.08769621       0.06299031       0.06032923       0.05135372       0.04608608       0.04144992       0.03378702       0.03207165       0.02955715       0.02679617       0.02476499       0.02361445       0.02205720       0.02075376       0.02007376       0.01911933       0.01744821       0.01595582       0.01467894       0.01308103       0.01188852       0.01070496       0.01007655       0.00925735       0.00862071       0.00759156       0.00696985       0.00000000       0.00000000       0.00000000       0.00000000
Si       0.14535700       2.73043000       2.74837000       0.67763500      -1.25548000       0.38675000       0.28220500       0.25768071       0.25294610       0.24163391       0.05931991       0.05163560       0.05140047       0.05084842       0.05011988       0.04683818       0.04207296       0.03885879       0.03803064       0.03652160       0.03625819       0.03582715       0.01615582       0.01525448       0.01225158       0.00996329       0.00791931       0.00791093       0.00791018       0.00789692       0.00751609       0.00464542       0.00429623       0.00428741       0.00000000       0.00000000       0.00000000       0.00000000       0.08779474       0.06162507       0.05890631       0.05012539       0.04578297       0.04251597       0.03338717       0.03178930       0.02963713       0.02665337       0.02489941       0.02364615       0.02207988       0.02094188       0.01978244       0.01901863       0.01784032       0.01624904       0.01439259       0.01332828       0.01162475       0.01068656       0.01013795       0.00949914       0.00849401       0.00750492       0.00660039       0.00000000       0.00000000       0.00000000       0.00000000
Si       2.75579000      10.83130000       2.63552000       1.29888000      -0.30364300       0.08623630       0.27092271       0.25647745       0.23377962       0.23148736       0.05031791       0.04683818       0.04607161       0.04603605       0.04519173       0.04036956       0.03882398       0.03785729       0.03722345       0.03711592       0.03677582       0.03431767       0.01210374       0.01050071       0.01043181       0.01021768       0.00816806       0.00610651       0.00556491       0.00548333       0.00523502       0.00465072       0.00451088       0.00324164       0.00000000       0.00000000       0.00000000       0.00000000       0.08214751       0.05781020       0.05454818       0.04700683       0.04234467       0.03901005       0.03070678       0.02911572       0.02696422       0.02429927       0.02275417       0.02154370       0.02016424       0.01885084       0.01816545       0.01735427       0.01618158       0.01446951       0.01225488       0.01133540       0.01052480       0.00967002       0.00876378       0.00808625       0.00726117       0.00656211       0.00578930       0.00000000       0.00000000       0.00000000       0.00000000
Si       1.47887000       1.32635000       1.29194000      -1.41485000       0.21310400       0.89630500       0.27654963       0.27092271       0.25805780       0.24163391       0.05539970       0.05066432       0.04909615       0.04680275       0.04612521       0.04605674       0.04424825       0.04195469       0.03820893       0.03780969       0.03409614       0.03233974       0.01322970       0.00974113       0.00957295       0.00934283       0.00900529       0.00851433       0.00824604       0.00681224       0.00644403       0.00633384       0.00384329       0.00376051       0.00000000       0.00000000       0.00000000       0.00000000       0.08535477       0.06089313       0.05854116       0.04975934       0.04425087       0.04081749       0.03247877       0.03057025       0.02834679       0.02610128       0.02425067       0.02286040       0.02136134       0.02012970       0.01913198       0.01781953       0.01676936       0.01527169       0.01396228       0.01233297       0.01124396       0.01015569       0.00944937       0.00887827       0.00833114       0.00726669       0.00657527       0.00000000       0.00000000       0.00000000       0.00000000
Si       3.99447000       4.03710000       1.37209000       0.44016200       0.19787600      -0.26757000       0.26438935       0.25834147       0.25764171       0.25640520       0.06382588       0.05828313       0.05539970       0.05431542       0.05112488       0.04825507       0.04401878       0.04350772       0.04196010       0.04157806       0.04067328       0.03931024       0.01615582       0.01512292       0.01106075       0.01052907       0.01032890       0.01021768       0.00933621       0.00909676       0.00563689       0.00476905       0.00426899       0.00418216       0.00000000       0.00000000       0.00000000       0.00000000       0.09074049       0.06337896       0.06131711       0.05332459       0.04824024       0.04422163       0.03562771       0.03382696       0.03115748       0.02872000       0.02673534       0.02531464       0.02311166       0.02195054       0.02099449       0.02018413       0.01893221       0.01711382       0.01558302       0.01373004       0.01239288       0.01128783       0.01059571       0.00970968       0.00882444       0.00792255       0.00681411       0.00000000       0.00000000       0.00000000       0.00000000
Si       1.45719000       4.16079000       4.07804000      -1.35168000      -0.71571500      -0.84911500       0.28988233       0.28495455       0.27727782       0.25768071       0.06214901       0.06065101       0.05717406       0.05431542       0.04479659       0.04127253       0.04068902       0.04022961       0.03848065       0.03821533       0.03409614       0.03349068       0.01257303       0.01009457       0.00896867       0.00813442       0.00776479       0.00673673       0.00605867       0.00471244       0.00465072       0.00406524       0.00378763       0.00365978       0.00000000       0.00000000       0.00000000       0.00000000       0.08721960       0.06258108       0.06014565       0.05063364       0.04560040       0.04101474       0.03336848       0.03099068       0.02810412       0.02583656       0.02415796       0.02300157       0.02153570       0.02028891       0.01889926       0.01779553       0.01603452       0.01429896       0.01262944       0.01139792       0.01011666       0.00939400       0.00878927       0.00800365       0.00728204       0.00671873       0.00594882       0.00000000       0.00000000       0.00000000       0.00000000
Si       4.16975000       1.38468000       4.06492000      -0.71396500       0.07065690      -0.62790900       0.25891178       0.25394622       0.24759080       0.23377962       0.05477718       0.05026481       0.04877036       0.04825507       0.04793781       0.04490192       0.04195469       0.04095659       0.04068902       0.03473575       0.03453835       0.02791376       0.01440184       0.01355605       0.01222007       0.01186096       0.00996329       0.00789833       0.00734999       0.00616425       0.00555219       0.00526902       0.00496455       0.00482265       0.00000000       0.00000000       0.00000000       0.00000000       0.08460773       0.05978798       0.05725981       0.04927163       0.04413179       0.04054606       0.03257870       0.03077809       0.02807355       0.02601183       0.02401992       0.02252315       0.02118887       0.02033695       0.01943112       0.01831795       0.01736618       0.01598910       0.01404417       0.01246494       0.01153372       0.01075905       0.00996361       0.00891301       0.00823326       0.00747303       0.00684863       0.00000000       0.00000000       0.00000000       0.00000000
Si       5.50721000       0.12454000      10.69670000       0.63364900      -0.60128400       1.66169000       0.27373066       0.25960485       0.24163276       0.22702448       0.05834544       0.05568445       0.05084870       0.04913603       0.04673484       0.04569978       0.04089242       0.04010705       0.03797843       0.03722345       0.02412887       0.02082361       0.01932116       0.01500733       0.00974113       0.00951897       0.00923391       0.00909676       0.00656425       0.00635222       0.00631332       0.00616632       0.00482265       0.00331037       0.00000000       0.00000000       0.00000000       0.00000000       0.08361759       0.06005422       0.05689191       0.04853243       0.04394410       0.03977118       0.03241672       0.02978279       0.02790360       0.02564858       0.02401423       0.02267053       0.02108187       0.02005756       0.01895562       0.01760195       0.01622320       0.01494522       0.01389137       0.01253996       0.01140694       0.01051171       0.00958289       0.00882421       0.00816208       0.00735420       0.00651219       0.00000000       0.00000000       0.00000000       0.00000000
Si       8.21151000       2.72239000      10.83000000      -0.16796600      -0.12490800      -0.43605400       0.27208216       0.26908187       0.25953607       0.25535954       0.05604464       0.05548295       0.05084870       0.05074275       0.04829536       0.04772758       0.04347458       0.04327150       0.04303618       0.04225798       0.03625819       0.02879326       0.01658330       0.01070019       0.00759872       0.00749219       0.00696369       0.00684397       0.00657036       0.00639322       0.00633384       0.00606708       0.00599383       0.00426899       0.00000000       0.00000000       0.00000000       0.00000000       0.08735914       0.06176348       0.05886759       0.05004867       0.04575867       0.04195961       0.03398576       0.03144572       0.02855960       0.02607525       0.02486142       0.02349448       0.02184741       0.02092685       0.02011714       0.01826682       0.01653380       0.01462010       0.01348411       0.01241011       0.01132513       0.01014797       0.00916247       0.00852963       0.00803127       0.00744034       0.00678574       0.00000000       0.00000000       0.00000000       0.00000000
Si       5.46724000       2.78194000       2.65964000      -0.36952600      -0.55849700       0.36928000       0.27085022       0.26727041       0.26438935       0.25394622       0.05518571       0.04848743       0.04779635       0.04648512       0.04627029       0.04594328       0.04499823       0.04370658       0.04347458       0.04139429       0.04089242       0.03882398       0.01475057       0.01320113       0.01235820       0.01225140       0.00934283       0.00896867       0.00790814       0.00675316       0.00584517       0.00499832       0.00461419       0.00355305       0.00000000       0.00000000       0.00000000       0.00000000       0.08752840       0.06250561       0.06026296       0.05124775       0.04577724       0.04219335       0.03335508       0.03230618       0.03015650       0.02743219       0.02554740       0.02407314       0.02153547       0.02105999       0.02043447       0.01932729       0.01825439       0.01664045       0.01456459       0.01309406       0.01196178       0.01096931       0.00983146       0.00922982       0.00857409       0.00757783       0.00640796       0.00000000       0.00000000       0.00000000       0.00000000
Si       8.10684000       0.06505400       2.76625000       0.83716900      -0.36360900      -0.19787600       0.26499719       0.25934502       0.25222481       0.24699453       0.05598460       0.05219723       0.04859911       0.04779635       0.04367719       0.04314587       0.04311188       0.04225798       0.03797843       0.03712256       0.03652160       0.03261397       0.01940576       0.01449699       0.01355605       0.01102643       0.01049127       0.00853610       0.00637782       0.00602436       0.00500830       0.00376051       0.00329790       0.00295199       0.00000000       0.00000000       0.00000000       0.00000000       0.08501614       0.06068875       0.05800895       0.04999168       0.04463484       0.04084658       0.03269064       0.03077905       0.02870667       0.02639429       0.02430413       0.02305362       0.02167988       0.02029693       0.01962564       0.01848771       0.01743099       0.01638615       0.01447504       0.01239519       0.01135328       0.01047201       0.00956585       0.00848317       0.00771458       0.00650626       0.00574063       0.00000000       0.00000000       0.00000000       0.00000000
Si       6.89898000       1.48823000       1.38563000      -1.27390000      -1.38945000      -1.14269000       0.27208216       0.26727041       0.26499719       0.22702448       0.07290285       0.06147835       0.05541574       0.04591861       0.04490192       0.04392421       0.04196010       0.04167641       0.03946693       0.03387738       0.03300359       0.03088337       0.01573403       0.01500789       0.01295198       0.01145501       0.00867029       0.00822950       0.00791931       0.00737231       0.00719210       0.00548333       0.00169598       0.00094770       0.00000000       0.00000000       0.00000000       0.00000000       0.08663896       0.06128255       0.05906233       0.05015791       0.04568930       0.04128895       0.03454968       0.03149431       0.02897226       0.02677111       0.02471494       0.02326695       0.02191051       0.02054903       0.01966407       0.01829211       0.01730999       0.01597014       0.01409092       0.01332800       0.01184837       0.01060047       0.00951469       0.00868862       0.00782187       0.00587478       0.00359756       0.00000000       0.00000000       0.00000000       0.00000000
Si       9.49545000       3.85232000       1.51295000       0.48764000       2.29329000      -1.76373000       0.28220500       0.26908187       0.26214238       0.23262519       0.07290285       0.06577777       0.06440730       0.04605674       0.04479659       0.04474628       0.03838028       0.03550279       0.03214527       0.03152437       0.02845012       0.02292545       0.01940576       0.01859316       0.01585102       0.01475057       0.01062701       0.00634763       0.00445824       0.00424288       0.00413333       0.00265925       0.00247120       0.00161935       0.00000000       0.00000000       0.00000000       0.00000000       0.08487648       0.06077767       0.05884283       0.05082784       0.04447427       0.03946002       0.03365452       0.03134550       0.02815764       0.02665649       0.02371577       0.02259969       0.02104153       0.02022243       0.01907626       0.01781944       0.01622471       0.01528258       0.01406733       0.01252022       0.01108018       0.00965498       0.00832141       0.00700679       0.00648149       0.00546119       0.00483020       0.00000000       0.00000000       0.00000000       0.00000000
Si       6.87449000       4.03482000       3.97441000      -0.62958600       0.75871600       0.75345700       0.27085022       0.27055677       0.26366357       0.24959868       0.06440730       0.06147835       0.04793781       0.04645368       0.04567749       0.04336511       0.04312602       0.04067328       0.03954339       0.03950211       0.03667026       0.03001908       0.01449699       0.01245718       0.01127421       0.01103611       0.01070019       0.00932078       0.00789692       0.00766064       0.00765922       0.00654716       0.00605231       0.00418975       0.00000000       0.00000000       0.00000000       0.00000000       0.08748956       0.06286074       0.06038947       0.05171345       0.04594010       0.04175242       0.03405057       0.03189261       0.02978889       0.02704199       0.02540348       0.02365533       0.02206310       0.02094700       0.02001863       0.01901601       0.01799125       0.01655593       0.01502412       0.01339424       0.01228749       0.01117195       0.01055010       0.00974717       0.00892407       0.00818814       0.00728207       0.00000000       0.00000000       0.00000000       0.00000000
Si       9.60779000       1.37494000       4.10300000      -0.56620600      -0.10196000       0.53057900       0.25294610       0.24794309       0.24699453       0.24045645       0.06577777       0.05418142       0.04567749       0.04392421       0.04243790       0.04198752       0.04171472       0.04022961       0.03843371       0.03780969       0.03547183       0.03206357       0.01375727       0.01109221       0.01066231       0.01038389       0.01026590       0.00986458       0.00970785       0.00816806       0.00809440       0.00691020       0.00599383       0.00499832       0.00000000       0.00000000       0.00000000       0.00000000       0.08489130       0.06012796       0.05797400       0.05018201       0.04468716       0.04028845       0.03290813       0.03039343       0.02857004       0.02659364       0.02489803       0.02354967       0.02152490       0.02013241       0.01938354       0.01827784       0.01734257       0.01648221       0.01539841       0.01310301       0.01193301       0.01117606       0.01050745       0.00978906       0.00887565       0.00828262       0.00769831       0.00000000       0.00000000       0.00000000       0.00000000
Si      10.83000000       5.33203000       0.06328860       0.51021300      -1.23835000       0.49703700       0.25789716       0.25080245       0.23303117       0.23262519       0.05586849       0.05548295       0.05163560       0.04938237       0.04824134       0.04456031       0.04358381       0.04325359       0.03955992       0.03691862       0.03639782       0.03197781       0.01296608       0.01246121       0.01052907       0.01009457       0.00970381       0.00957295       0.00758867       0.00647981       0.00582270       0.00560200       0.00440020       0.00370424       0.00000000       0.00000000       0.00000000       0.00000000       0.08428945       0.05953011       0.05699893       0.04969143       0.04524984       0.04096884       0.03281401       0.03103350       0.02905716       0.02599298       0.02458904       0.02310240       0.02178934       0.02062537       0.01931811       0.01840112       0.01724475       0.01592212       0.01415513       0.01229890       0.01130492       0.01043898       0.00978151       0.00897478       0.00824866       0.00750906       0.00629655       0.00000000       0.00000000       0.00000000       0.00000000
Si       2.62554000       8.02111000      -0.09482340       1.05990000      -0.01711750       1.49421000       0.28052713       0.27278724       0.25496890       0.24886969       0.08212133       0.05058141       0.04824134       0.04456052       0.04425253       0.04377034       0.04310940       0.04299259       0.03785729       0.03338996       0.03133899       0.02671985       0.02412887       0.01490786       0.01465795       0.00933621       0.00900605       0.00776007       0.00681224       0.00546491       0.00474249       0.00432075       0.00305056       0.00160610       0.00000000       0.00000000       0.00000000       0.00000000       0.08663622       0.06205934       0.05892610       0.05064427       0.04478721       0.04027229       0.03372299       0.03062108       0.02885508       0.02669803       0.02480079       0.02327638       0.02105596       0.02015463       0.01942924       0.01846978       0.01697266       0.01561878       0.01433376       0.01251352       0.01136909       0.01013177       0.00913884       0.00798810       0.00726462       0.00655970       0.00473603       0.00000000       0.00000000       0.00000000       0.00000000
Si      -0.03280920       8.21764000       2.68200000       0.44486200      -2.27987000      -0.72578100       0.28521159       0.27246547       0.25595442       0.21614743       0.05422642       0.05313959       0.04519173       0.04433128       0.04371611       0.04367719       0.04310940       0.04256958       0.03980010       0.03955992       0.03884117       0.03635748       0.01503165       0.01105886       0.01026590       0.00900529       0.00815780       0.00673673       0.00548877       0.00484747       0.00291652       0.00265925       0.00208624       0.00105487       0.00000000       0.00000000       0.00000000       0.00000000       0.08379947       0.05925475       0.05507560       0.04794866       0.04306015       0.03992179       0.03146720       0.02995135       0.02751114       0.02511324       0.02364761       0.02224683       0.02042408       0.01935930       0.01876377       0.01748078       0.01567378       0.01414656       0.01254570       0.01107402       0.00970571       0.00850333       0.00789754       0.00716978       0.00600220       0.00503465       0.00376986       0.00000000       0.00000000       0.00000000       0.00000000
Si       2.71272000       5.45789000       2.75015000       2.23987000      -1.17742000       0.77438300       0.30498648       0.28495455       0.25642685       0.25640520       0.05790686       0.05615191       0.05140047       0.05126107       0.04697044       0.04456052       0.04370658       0.04358381       0.04307845       0.03980010       0.03348807       0.03203377       0.01411195       0.01286297       0.00882676       0.00841101       0.00810478       0.00737648       0.00734999       0.00652433       0.00644403       0.00634763       0.00605231       0.00286826       0.00000000       0.00000000       0.00000000       0.00000000       0.08882640       0.06352337       0.05995134       0.05148640       0.04613687       0.04197763       0.03376073       0.03159354       0.02920247       0.02654323       0.02516692       0.02350239       0.02211603       0.02089600       0.01978400       0.01868332       0.01694096       0.01500398       0.01405142       0.01275643       0.01135084       0.01059688       0.00961207       0.00888011       0.00821253       0.00770154       0.00627925       0.00000000       0.00000000       0.00000000       0.00000000
Si       1.46623000       6.60861000       1.40537000      -2.96054000       2.87204000      -1.07935000       0.30498648       0.25496890       0.25080245       0.21614743       0.06382588       0.06214901       0.05007050       0.04626585       0.04252751       0.04164564       0.04140859       0.03906639       0.03747972       0.03660490       0.03550279       0.02645343       0.01850584       0.01525448       0.01328457       0.01165444       0.01114882       0.01097433       0.00892686       0.00836434       0.00604092       0.00556491       0.00190662       0.00141800       0.00000000       0.00000000       0.00000000       0.00000000       0.08669555       0.06120183       0.05787188       0.05015523       0.04544871       0.04091058       0.03331491       0.03085200       0.02838168       0.02702936       0.02465963       0.02317451       0.02174107       0.02039873       0.01945005       0.01842700       0.01765372       0.01625160       0.01493432       0.01326175       0.01227653       0.01157320       0.01029160       0.00905180       0.00782411       0.00598518       0.00469715       0.00000000       0.00000000       0.00000000       0.00000000
Si       4.11714000       9.45760000       1.09999000      -0.00325291      -0.12121300       2.03648000       0.24886969       0.24163276       0.23148736       0.20599591       0.06632230       0.06198471       0.05807977       0.05382446       0.04703330       0.04680275       0.04186567       0.03906639       0.03168943       0.03088337       0.02791376       0.02033806       0.02022223       0.01788976       0.01623869       0.01291460       0.00935061       0.00652433       0.00602436       0.00576630       0.00484747       0.00355305       0.00227654       0.00109989       0.00000000       0.00000000       0.00000000       0.00000000       0.08240217       0.05782919       0.05535131       0.04872286       0.04400784       0.03829006       0.03320860       0.03084857       0.02824531       0.02550438       0.02393057       0.02240708       0.02097533       0.02023562       0.01893644       0.01767696       0.01632929       0.01496322       0.01343548       0.01252208       0.01129817       0.00980588       0.00880236       0.00761485       0.00667680       0.00559825       0.00417707       0.00000000       0.00000000       0.00000000       0.00000000
Si       1.28108000       9.52937000       3.93526000       0.78636500       0.78383700       1.04790000       0.28521159       0.26243449       0.25647745       0.25506791       0.05418142       0.05315322       0.05264752       0.05066432       0.04164564       0.03973531       0.03453835       0.03424925       0.03316551       0.03168943       0.02889523       0.02340699       0.01649041       0.01225158       0.01049127       0.00882676       0.00801057       0.00776007       0.00684220       0.00590186       0.00435934       0.00384458       0.00188841       0.00121054       0.00000000       0.00000000       0.00000000       0.00000000       0.08190943       0.05912027       0.05597462       0.04787661       0.04114512       0.03747071       0.03035835       0.02815791       0.02579858       0.02437856       0.02217902       0.02069497       0.01966792       0.01870723       0.01763107       0.01645447       0.01494939       0.01386575       0.01282182       0.01132419       0.01015050       0.00931122       0.00850482       0.00728711       0.00664985       0.00562553       0.00398972       0.00000000       0.00000000       0.00000000       0.00000000
Si       4.11495000       6.64399000       4.22902000      -0.90983900       0.91619600      -0.03874410       0.26108060       0.25642685       0.25299652       0.22616398       0.07757047       0.06065101       0.05588321       0.05315130       0.04645368       0.04306590       0.04157806       0.04140859       0.04121359       0.03755420       0.02889523       0.02108327       0.02022223       0.01345545       0.01225140       0.01168354       0.00935344       0.00788196       0.00699847       0.00444951       0.00324164       0.00291652       0.00278744       0.00160610       0.00000000       0.00000000       0.00000000       0.00000000       0.08562956       0.06018379       0.05711412       0.05015319       0.04521681       0.04019881       0.03405961       0.03061929       0.02894718       0.02648816       0.02464432       0.02270596       0.02154785       0.02047129       0.01893919       0.01746816       0.01639478       0.01540691       0.01346579       0.01206829       0.01073946       0.00972581       0.00855110       0.00736672       0.00656357       0.00579392       0.00471500       0.00000000       0.00000000       0.00000000       0.00000000
Si       5.37856000       5.32967000      -0.02404730      -0.84487900      -0.47806800      -0.13943900       0.28555688       0.26932392       0.26716450       0.25764171       0.05585646       0.05518571       0.05059093       0.04886803       0.04809370       0.04308752       0.04307845       0.04303618       0.04299259       0.04243740       0.04034273       0.03462090       0.01697472       0.01328457       0.01295198       0.01287188       0.01193221       0.01020375       0.00935061       0.00932078       0.00595904       0.00537937       0.00444951       0.00424288       0.00000000       0.00000000       0.00000000       0.00000000       0.09027949       0.06402043       0.06134668       0.05288207       0.04728533       0.04282391       0.03443745       0.03294748       0.03108394       0.02801785       0.02588356       0.02432792       0.02254746       0.02154509       0.02091470       0.02010806       0.01870225       0.01755850       0.01594695       0.01402326       0.01255352       0.01178610       0.01092984       0.01007224       0.00895804       0.00809787       0.00687495       0.00000000       0.00000000       0.00000000       0.00000000