64
Lattice="10.862 0 0 0 10.862 0 0 0 10.862 " PBC="1 1 1" Properties=species:S:1:pos:R:3:forces:R:3 energy="-263.87003"
Si    1.10086e+01  -1.83182e-01   1.09532e+01 -4.61212e-01   1.64634e+00  -6.58996e-01
Si    2.75251e+00   2.69713e+00  -4.36919e-02 -8.05666e-01   9.64747e-01   5.48295e-01
Si   -3.54090e-02   2.90940e+00   2.55964e+00  2.32512e-01  -1.52498e+00   9.18178e-01
Si    2.75523e+00   1.09098e+01   2.80034e+00 -1.92790e+00   5.49131e-01  -8.39526e-01
Si    1.35504e+00   1.40639e+00   1.34641e+00  5.11620e-01  -4.25473e-01   4.42647e-01
Si    4.11021e+00   3.99425e+00   1.45168e+00  3.58857e-01   9.34936e-01  -1.46988e+00
Si    1.32444e+00   4.16837e+00   3.97543e+00 -8.34656e-02  -5.21131e-01  -6.51790e-01
Si    3.88953e+00   1.35734e+00   4.19899e+00  2.13608e+00   4.53696e-01   8.59608e-01
Si    5.38381e+00   6.83843e-02   1.09382e+01  2.06080e-01  -5.04557e-01   1.14906e+00
Si    8.17948e+00   2.66672e+00   1.08419e+01 -5.30153e-01   1.01664e+00  -4.30255e-01
Si    5.37067e+00   2.68529e+00   2.89864e+00 -8.09453e-01   8.57979e-01   2.93135e-01
Si    7.99640e+00   6.04916e-02   2.78319e+00  3.93059e-01   1.44601e+00  -1.33774e+00
Si    6.65027e+00   1.64549e+00   1.37730e+00  1.02608e+00  -3.33839e+00   9.34436e-02
Si    9.39034e+00   4.13680e+00   1.27785e+00 -8.87461e-02   7.97727e-01  -1.60287e-01
Si    6.78850e+00   4.08667e+00   4.09481e+00  7.11650e-01  -9.98499e-01   3.53438e-01
Si    9.54605e+00   1.45297e+00   4.01673e+00 -4.98886e-01  -2.63582e-01  -9.41319e-02
Si    1.06334e+01   5.54645e+00  -1.28316e-01  1.54833e+00  -3.92877e-01  -2.12862e-01
Si    2.92452e+00   8.13570e+00   6.21720e-02 -1.72067e+00   5.79875e-01  -2.69681e-01
Si    1.47143e-02   8.12860e+00   2.74983e+00 -1.21906e+00   1.04250e+00   1.74714e-01
Si    2.71915e+00   5.44838e+00   2.63142e+00 -1.08254e+00   5.04422e-01  -9.04482e-01
Si    1.24512e+00   6.89692e+00   1.21161e+00  1.09620e+00  -1.27307e+00   5.38910e-01
Si    4.04158e+00   9.56108e+00   1.55545e+00  1.76795e+00  -9.18351e-01  -1.28365e+00
Si    1.45612e+00   9.52993e+00   4.08831e+00 -8.82579e-01  -8.01052e-01   6.17186e-02
Si    4.10490e+00   6.68607e+00   3.97026e+00 -7.72415e-01  -1.22642e+00   1.81441e+00
Si    5.55331e+00   5.49933e+00   4.09418e-02  1.07470e-01  -2.30747e+00   6.51813e-01
Si    8.23813e+00   8.12656e+00   1.07016e+01 -1.15117e+00   1.68997e+00   1.29222e+00
Si    5.37023e+00   7.98130e+00   2.79049e+00  1.33484e+00   2.26581e+00  -2.26131e+00
Si    8.07152e+00   5.48892e+00   2.68478e+00  7.92768e-01  -7.87523e-01   7.61247e-01
Si    6.90315e+00   6.88493e+00   1.34555e+00 -9.69205e-01   6.54104e-02  -4.25561e-01
Si    9.39963e+00   9.62921e+00   1.37771e+00  6.21544e-01  -2.12751e+00   3.92570e-01
Si    6.68265e+00   9.45394e+00   3.98776e+00  1.71784e+00  -8.56203e-01   2.26604e+00
Si    9.45471e+00   6.71489e+00   4.15474e+00  4.86189e-01   8.39271e-01  -1.58659e+00
Si    1.09051e+01   1.09339e+01   5.38432e+00 -5.24978e-01  -5.72820e-01   4.55806e-01
Si    2.52117e+00   2.83123e+00   5.42443e+00  1.10595e+00  -4.27600e-01   1.23458e+00
Si    5.80635e-02   2.57699e+00   8.32115e+00 -6.69658e-01   1.55540e+00  -1.58513e+00
Si    2.72671e+00   4.40659e-02   8.15366e+00 -5.01444e-01   3.39863e-01  -8.91528e-02
Si    1.29035e+00   1.39592e+00   6.87107e+00  1.00455e+00  -5.66979e-01  -9.98151e-01
Si    4.04968e+00   4.08105e+00   6.87056e+00 -8.57686e-01  -3.41761e-01  -6.58586e-01
Si    1.29288e+00   4.10888e+00   9.45046e+00  6.06490e-01   4.30270e-01   1.99894e+00
Si    4.04895e+00   1.29027e+00   9.55524e+00  2.96426e-01   9.16472e-01  -7.25384e-01
Si    5.50078e+00   1.08268e+01   5.44775e+00 -3.15501e+00  -7.07043e-01  -9.97735e-01
Si    8.14007e+00   2.63068e+00   5.53000e+00 -3.46055e-01   4.52541e-01  -9.45302e-01
Si    5.37005e+00   2.68379e+00   8.16182e+00 -3.03604e-01  -5.57734e-01   1.23062e-01
Si    8.06158e+00   6.20704e-02   8.29689e+00  9.97806e-01  -4.87452e-01  -1.43957e+00
Si    6.62542e+00   1.27917e+00   6.78232e+00  2.51522e+00   1.29779e+00   1.56363e+00
Si    9.63021e+00   3.91835e+00   6.80076e+00  7.22944e-01  -1.63854e+00  -5.84841e-01
Si    6.79147e+00   4.01576e+00   9.41845e+00  9.49828e-01   5.78816e-01   5.40023e-01
Si    9.64342e+00   1.30227e+00   9.63233e+00 -1.17190e+00  -1.52347e+00   5.49903e-01
Si    1.07755e+01   5.29372e+00   5.32823e+00  1.32657e+00   1.16375e+00   1.40295e+00
Si    2.83141e+00   8.04738e+00   5.33514e+00  1.31946e-01   1.62079e+00  -2.42314e-02
Si    1.10652e+01   8.19536e+00   7.96393e+00 -5.36279e-01  -7.52565e-01   5.78378e-01
Si    2.80881e+00   5.47677e+00   8.30809e+00 -1.28063e+00  -2.84815e-01  -2.28270e+00
Si    1.49989e+00   6.72289e+00   6.57147e+00 -1.14019e+00  -1.18453e+00   1.83743e+00
Si    3.98732e+00   9.56507e+00   6.82377e+00  1.68151e+00  -1.60045e+00  -6.95409e-01
Si    1.52314e+00   9.47582e+00   9.47149e+00 -1.81722e-01  -9.09945e-01   6.09423e-01
Si    4.18167e+00   6.71737e+00   9.60980e+00 -6.34504e-02   1.15769e+00  -1.06659e-01
Si    5.38427e+00   5.31073e+00   5.40193e+00  1.54480e-01   1.34027e+00   3.51005e-01
Si    8.28513e+00   8.12936e+00   5.54741e+00 -2.34990e+00   5.95803e-01  -2.28441e+00
Si    5.39908e+00   8.12538e+00   8.23622e+00  2.78974e-01  -5.40170e-02  -1.93928e+00
Si    8.30747e+00   5.21096e+00   7.94442e+00 -2.86631e+00   2.48792e+00   1.51086e+00
Si    6.81523e+00   6.75264e+00   6.67385e+00 -4.93330e-01  -6.52937e-01   1.81260e+00
Si    9.52411e+00   9.52390e+00   6.80601e+00  5.00998e-01   1.89393e+00   7.38835e-01
Si    6.68071e+00   9.53750e+00   9.55098e+00  8.06190e-01  -2.56105e-01   5.67550e-01
Si    9.44365e+00   6.87850e+00   9.22167e+00  1.31630e+00  -6.99910e-01  -5.43123e-01
