64
Lattice="10.862 0 0 0 10.862 0 0 0 10.862 " PBC="1 1 1" Properties=species:S:1:pos:R:3:forces:R:3 energy="-264.67225"
Si    1.07231e+01   2.81770e-01   1.07803e+01 -9.36344e-01  -5.74482e-01  -3.90528e-01
Si    2.70350e+00   2.70680e+00   3.68543e-02 -6.54466e-02  -3.20368e-01  -7.07123e-01
Si    9.58486e-02   2.59830e+00   2.81112e+00 -7.93589e-01   5.66529e-01   6.38340e-01
Si    2.81072e+00   1.08385e+01   2.66985e+00 -1.61642e-01  -6.19061e-01  -4.55187e-01
Si    1.32945e+00   1.32505e+00   1.37813e+00  1.04399e+00   5.74166e-02  -2.43658e-01
Si    4.01037e+00   4.11597e+00   1.34974e+00  8.37036e-01  -4.26302e-01   5.16263e-02
Si    1.39045e+00   4.02570e+00   4.15255e+00  4.98834e-01  -4.55728e-01   4.22251e-01
Si    4.18430e+00   1.38854e+00   3.94094e+00 -1.31846e+00  -7.73858e-01   1.56680e+00
Si    5.48617e+00   1.03072e-02   1.07961e+01 -1.53005e+00   5.71651e-01  -1.28519e+00
Si    8.18336e+00   2.80209e+00   1.08993e+01  2.03325e-01  -8.29369e-01  -1.62436e-01
Si    5.42597e+00   2.71828e+00   2.61261e+00  1.24511e+00   7.10951e-01  -1.55986e-01
Si    8.13817e+00  -1.31082e-01   2.48971e+00  6.46829e-01   1.56471e+00   1.77658e+00
Si    6.77832e+00   1.31033e+00   1.25171e+00  6.48981e-01   1.07040e+00   5.13516e-01
Si    9.62247e+00   4.02015e+00   1.54049e+00 -1.05453e+00  -1.15363e+00  -4.49979e-01
Si    6.85162e+00   4.05940e+00   4.03820e+00 -1.54264e+00   4.16071e-01  -4.46546e-01
Si    9.42440e+00   1.34418e+00   4.11135e+00  7.48737e-01  -1.26424e+00  -1.45523e-01
Si    1.09438e+01   5.19996e+00   1.68975e-01 -6.49736e-01   3.09573e+00  -6.42553e-01
Si    2.73899e+00   8.25597e+00  -4.28780e-02 -9.55210e-01  -6.36484e-01   2.13180e-01
Si    5.88812e-02   7.96576e+00   2.71954e+00 -1.22040e-01   1.41139e+00  -1.21423e+00
Si    2.79085e+00   5.40837e+00   2.84196e+00 -4.03190e-01   2.43424e-01  -7.67046e-02
Si    1.54635e+00   6.67188e+00   1.30596e+00 -9.27890e-01   6.00390e-01   7.71717e-01
Si    4.21862e+00   9.42977e+00   1.27574e+00 -1.41979e+00   1.86682e+00  -1.00439e-03
Si    1.41592e+00   9.47354e+00   4.05934e+00 -3.12197e-01   2.33634e-03   2.44430e-01
Si    4.02327e+00   6.89928e+00   4.18971e+00  1.66373e+00  -1.20328e+00  -1.50335e+00
Si    5.39580e+00   5.40466e+00  -5.10241e-02 -1.28068e+00   1.70511e+00   1.28178e+00
Si    8.00113e+00   8.15082e+00   1.09174e+01  9.00208e-01  -3.82556e-01  -4.51509e-01
Si    5.40033e+00   8.15148e+00   2.67308e+00  4.42718e-01  -9.52155e-01   1.35331e+00
Si    8.18194e+00   5.38471e+00   2.73789e+00 -4.33011e-01   6.14873e-02  -7.46667e-01
Si    6.74064e+00   6.74544e+00   1.40922e+00 -6.65144e-02  -5.83282e-01  -3.03578e-01
Si    9.52965e+00   9.48198e+00   1.15533e+00  1.19953e+00  -6.68039e-01   1.38314e+00
Si    6.85931e+00   9.45652e+00   3.95447e+00 -2.40306e+00   1.72104e+00   9.24889e-02
Si    9.49743e+00   6.64693e+00   4.06567e+00  2.79459e-01   1.32633e+00   2.68426e-01
Si    1.09692e+01   1.08468e+01   5.57614e+00 -1.35440e+00  -2.74695e-01  -2.40054e+00
Si    2.79839e+00   2.58982e+00   5.50542e+00 -5.16911e-01   2.55941e-01  -1.77214e+00
Si    4.35517e-02   2.89707e+00   8.02261e+00  7.55195e-01  -2.11012e+00   1.22727e+00
Si    2.62139e+00  -1.14711e-01   8.22613e+00  9.72250e-01   7.17487e-01  -6.44249e-01
Si    1.42300e+00   1.31347e+00   6.86971e+00 -3.83012e-01   7.95912e-01   2.94085e-01
Si    4.01883e+00   4.07859e+00   6.69812e+00  1.80820e+00   6.53211e-01   4.96333e-01
Si    1.33003e+00   4.07506e+00   9.57259e+00  1.25042e+00  -6.58094e-01  -1.27884e+00
Si    4.03381e+00   1.44975e+00   9.32371e+00  1.98240e-01  -1.28766e+00   2.19713e+00
Si    5.36216e+00   1.08890e+01   5.47144e+00  2.96950e+00   9.30883e-01  -1.49107e+00
Si    8.16760e+00   2.87557e+00   5.43039e+00  6.07294e-01  -1.32567e+00   4.16088e-01
Si    5.45689e+00   2.82295e+00   8.13306e+00 -4.72364e-01   6.36111e-01  -8.90801e-02
Si    8.15403e+00  -1.54237e-02   7.98942e+00 -7.34061e-01  -3.45159e-01   4.05362e-02
Si    6.84907e+00   1.56080e+00   6.82744e+00 -8.13310e-01  -1.87711e+00  -1.26825e+00
Si    9.47650e+00   4.12875e+00   6.90168e+00 -1.04754e+00   1.65400e+00  -1.31422e+00
Si    6.74227e+00   4.10350e+00   9.63491e+00  5.07162e-01  -5.84824e-01  -1.33411e+00
Si    9.34211e+00   1.54364e+00   9.15481e+00  1.32326e+00   3.67338e-01   2.37565e+00
Si    1.08562e+01   5.40148e+00   5.46999e+00 -5.52716e-01  -8.16094e-01  -4.46156e-02
Si    2.73447e+00   8.14031e+00   5.50848e+00 -2.03058e+00   1.80092e-02   6.76381e-01
Si    1.08157e+01   8.11898e+00   8.42669e+00 -8.38160e-01  -2.44864e-01  -2.89489e+00
Si    2.68773e+00   5.39230e+00   8.06992e+00 -5.71426e-02  -2.37183e-02   1.56882e+00
Si    1.24214e+00   6.67990e+00   6.87425e+00  7.01694e-01   2.51106e+00   4.64906e-02
Si    4.07079e+00   9.55066e+00   6.72552e+00 -5.25572e-01  -8.49452e-01   2.07734e+00
Si    1.14879e+00   9.62775e+00   9.63678e+00  1.55562e+00  -5.38710e-01   1.73053e-01
Si    3.99230e+00   6.84900e+00   9.45768e+00  8.55183e-01  -6.75148e-01  -4.19801e-01
Si    5.51342e+00   5.49091e+00   5.38981e+00 -9.82729e-01  -5.58963e-01   4.95275e-01
Si    8.05812e+00   8.12280e+00   5.23923e+00  1.28415e+00  -1.68394e+00   2.39430e+00
Si    5.45761e+00   8.18018e+00   8.13615e+00 -1.14482e+00   7.14281e-01   3.40255e-01
Si    8.03431e+00   5.47625e+00   8.28202e+00  1.63431e+00  -2.04631e-01   3.22636e-01
Si    6.75877e+00   6.79627e+00   6.90236e+00  7.01349e-01   4.49087e-01  -2.01603e+00
Si    9.47323e+00   9.40654e+00   6.66946e+00  6.70980e-01  -4.74641e-01   1.42344e+00
Si    6.82427e+00   9.54338e+00   9.48645e+00 -1.07425e-02  -9.90202e-02  -8.51244e-01
Si    9.48909e+00   6.75633e+00   9.73883e+00 -3.13236e-01  -1.21975e+00   5.81464e-02
