64
Lattice="10.862 0 0 0 10.862 0 0 0 10.862 " PBC="1 1 1" Properties=species:S:1:pos:R:3:forces:R:3 energy="-262.6728"
Si    1.08571e+01   4.13586e-02   1.07505e+01  1.85172e-01  -1.42186e+00   1.36386e+00
Si    2.68827e+00   2.54804e+00  -1.01467e-01  7.18286e-01   1.30935e+00   6.02288e-01
Si    1.22345e-01   2.68721e+00   2.83351e+00 -8.27892e-01   5.32770e-01  -6.75707e-01
Si    2.66113e+00   1.07760e+01   2.56459e+00  1.31216e+00   2.55962e-01   1.23595e+00
Si    1.32418e+00   1.28421e+00   1.38388e+00 -1.26257e-01   8.04561e-01  -1.08841e+00
Si    4.08030e+00   4.11655e+00   1.31129e+00 -1.24774e+00  -1.80469e+00   1.73467e+00
Si    1.33915e+00   4.11715e+00   4.25500e+00  1.05393e+00  -8.89732e-01  -4.23967e-02
Si    4.19928e+00   1.24519e+00   3.93564e+00 -1.11945e+00   8.41777e-01  -1.81312e+00
Si    5.44875e+00  -1.26069e-01   1.08873e+01  1.38871e+00  -1.06213e-01  -1.21953e+00
Si    8.19065e+00   2.63131e+00   1.08703e+01 -1.21394e+00   8.75756e-01  -3.20570e-01
Si    5.64753e+00   2.64317e+00   2.58819e+00 -1.57371e+00  -8.29813e-02  -5.66306e-01
Si    8.22598e+00   3.28805e-02   2.83549e+00  4.80885e-01  -2.13679e+00   4.50885e-01
Si    6.98708e+00   1.11241e+00   1.28074e+00 -1.36285e+00   1.68749e+00   3.29521e-01
Si    9.45202e+00   3.91512e+00   1.40095e+00  2.40284e+00   2.48444e-01   1.16502e-01
Si    6.76234e+00   4.18109e+00   3.93649e+00  1.99409e-01  -3.56313e-01   1.46487e+00
Si    9.63793e+00   1.41494e+00   4.21485e+00 -1.27325e+00  -2.41605e-01  -1.21124e-02
Si    1.09846e+01   5.28453e+00   1.07286e-01  3.63782e-01  -3.88954e-01   7.30929e-01
Si    2.48972e+00   8.16498e+00  -1.05384e-01  1.27988e+00  -1.04097e+00   1.48504e+00
Si   -4.98610e-02   8.31916e+00   2.80243e+00  1.89021e+00  -2.74247e+00  -1.42931e+00
Si    2.76031e+00   5.46190e+00   3.01631e+00  7.06319e-01  -1.43743e+00  -2.14674e+00
Si    1.50743e+00   6.72692e+00   1.57750e+00 -2.56675e+00   1.17412e+00  -1.09218e+00
Si    3.96232e+00   9.47420e+00   1.11585e+00 -2.97553e-01  -6.29987e-01   1.82692e+00
Si    1.30856e+00   9.56679e+00   4.04624e+00  1.37419e+00  -9.11144e-02   2.87580e-01
Si    4.04819e+00   6.95598e+00   4.10067e+00  3.01979e-02   7.88327e-01   6.93358e-01
Si    5.35080e+00   5.53702e+00   1.29344e-01 -5.91226e-01  -2.57770e-02  -3.23545e+00
Si    8.07039e+00   8.03829e+00   1.10504e+01  9.10627e-01  -1.92467e-01  -1.31493e+00
Si    5.35243e+00   8.24806e+00   2.61678e+00 -1.39182e+00   3.79662e-01   8.61043e-01
Si    8.24261e+00   5.36155e+00   2.66260e+00 -1.61796e+00   1.96995e+00  -4.83542e-01
Si    6.60026e+00   6.83828e+00   1.43521e+00  2.46754e+00  -1.42391e+00   9.61833e-01
Si    9.53916e+00   9.37885e+00   1.34265e+00 -7.70910e-01   3.15062e+00  -2.59302e-01
Si    6.63504e+00   9.44955e+00   4.15234e+00  2.44523e+00   1.38341e-01  -2.47886e+00
Si    9.49427e+00   6.89403e+00   3.92599e+00  3.11353e-02  -1.45890e+00   2.20782e+00
Si    1.09024e+01   1.07253e+01   5.47789e+00 -3.84611e-01   2.20005e+00   5.34110e-01
Si    2.87758e+00   2.55774e+00   5.34772e+00 -9.26172e-01   1.42679e+00   4.00118e-01
Si   -1.70228e-01   2.71519e+00   7.91272e+00  1.09572e+00   8.97242e-01   1.26395e+00
Si    2.73269e+00   1.77282e-01   8.09607e+00 -4.99039e-01  -1.87620e+00   3.41514e-01
Si    1.32291e+00   1.40356e+00   6.73842e+00  4.71279e-01  -4.53217e-01  -8.66861e-01
Si    4.22072e+00   4.02560e+00   6.68417e+00 -8.30445e-01  -1.09819e-01   8.18891e-01
Si    1.33589e+00   3.97009e+00   9.33851e+00 -4.24577e-01  -3.61230e-01   6.50754e-01
Si    4.19306e+00   1.19757e+00   9.50417e+00 -5.78746e-01   1.40960e+00   3.29112e-01
Si    5.43294e+00   1.08618e+01   5.28689e+00 -1.23400e-01   2.03596e-01   3.31187e+00
Si    8.12954e+00   2.91004e+00   5.43885e+00 -3.42296e-01  -1.38022e+00  -1.30153e+00
Si    5.51148e+00   2.56117e+00   8.18315e+00  4.05687e-01   1.77808e+00  -5.38871e-01
Si    8.28538e+00   4.69628e-02   8.17378e+00 -2.14392e+00   1.69598e-01   1.14981e+00
Si    6.88182e+00   1.31607e+00   6.71773e+00 -1.81373e-01   1.59758e-01   2.04488e-02
Si    9.48174e+00   4.25618e+00   6.64370e+00 -1.11025e+00  -8.45408e-02   2.70735e+00
Si    6.78756e+00   4.14204e+00   9.56978e+00 -1.63317e-01  -6.02104e-01   2.68595e-01
Si    9.55868e+00   1.45858e+00   9.53177e+00 -7.27073e-02  -5.22919e-01  -1.47404e+00
Si    1.08629e+01   5.54940e+00   5.51213e+00 -1.79691e-02   1.51025e+00  -1.84008e+00
Si    2.64040e+00   8.29698e+00   5.48980e+00 -1.85691e-01  -8.79164e-01   2.85058e-01
Si    1.06416e+01   8.06868e+00   8.25741e+00  1.13920e+00   1.41625e+00   7.26538e-01
Si    2.62750e+00   5.38791e+00   8.00593e+00  1.29985e+00  -1.79230e-01   5.89022e-01
Si    1.23434e+00   6.90926e+00   6.95489e+00  9.02764e-01  -1.64324e-01  -1.93606e+00
Si    4.05654e+00   9.60677e+00   6.82166e+00 -4.46488e-02   6.12242e-01  -1.34288e+00
Si    1.38647e+00   9.52711e+00   9.40294e+00 -2.06774e+00   1.00495e+00  -1.07632e+00
Si    3.85850e+00   6.87644e+00   9.45727e+00  1.38209e+00  -1.73873e+00  -6.51467e-02
Si    5.41721e+00   5.59661e+00   5.36802e+00  5.28269e-01  -1.31022e+00  -1.06601e-01
Si    8.09138e+00   8.12227e+00   5.37197e+00  5.69995e-01   7.32605e-01   1.37375e+00
Si    5.30855e+00   8.13242e+00   8.05302e+00  9.49055e-01   6.17481e-01   1.94083e+00
Si    8.23084e+00   5.56695e+00   8.30365e+00 -1.06752e+00  -1.38362e+00  -1.66488e+00
Si    6.75010e+00   6.81964e+00   6.82292e+00  9.32498e-01  -1.79388e-01  -8.70993e-03
Si    9.48128e+00   9.57775e+00   6.87841e+00 -1.86200e-01  -2.52025e+00  -1.59374e+00
Si    6.88491e+00   9.37829e+00   9.54641e+00 -8.80331e-01   5.91076e-01  -1.19660e+00
Si    9.56998e+00   6.65672e+00   9.77522e+00 -7.04664e-01   1.33066e+00   1.25988e-01
