64
Lattice="10.862 0 0 0 10.862 0 0 0 10.862 " PBC="1 1 1" Properties=species:S:1:pos:R:3:forces:R:3 energy="-261.93944"
Si    1.07767e+01   1.04626e-01   1.07919e+01  7.62397e-01  -5.44316e-01   8.54053e-01
Si    2.70277e+00   2.83598e+00   1.45819e-01 -7.27040e-01  -1.76650e+00  -7.98331e-01
Si   -1.48436e-01   2.72039e+00   2.61741e+00  5.16580e-01  -1.21464e+00  -1.22496e-01
Si    2.77288e+00   1.07592e+01   2.87709e+00  3.05428e-01   7.54837e-01  -9.90881e-01
Si    1.41892e+00   1.28983e+00   1.42459e+00 -8.06124e-01   3.50316e-01  -5.45643e-02
Si    4.12242e+00   4.09481e+00   1.32383e+00  5.33866e-01   2.07824e+00   1.00203e-01
Si    1.27934e+00   3.93149e+00   3.94479e+00  9.31023e-02   1.37053e+00   3.95924e-01
Si    4.02560e+00   1.40043e+00   4.17770e+00 -1.03492e+00   7.77155e-01   7.63296e-01
Si    5.27583e+00   1.73138e-01   1.08519e+01 -2.34836e-01  -1.24913e+00  -8.15463e-03
Si    8.08484e+00   2.73526e+00   1.09062e+01  7.52561e-01  -2.17934e-01   1.44167e-01
Si    5.36001e+00   2.85854e+00   2.82083e+00  1.24228e+00  -1.28825e+00   3.99233e-01
Si    8.07087e+00  -9.06432e-02   2.44669e+00  2.15435e-01   1.74603e+00   1.08126e+00
Si    6.60377e+00   1.43577e+00   1.24414e+00  1.01053e+00   7.08010e-01   2.26921e+00
Si    9.45764e+00   4.17078e+00   1.25684e+00 -7.41357e-01   6.44694e-02   1.44225e+00
Si    6.90314e+00   4.03857e+00   4.32926e+00 -1.22036e+00  -1.85803e-01  -2.31724e+00
Si    9.44727e+00   1.23865e+00   3.99271e+00  3.09099e-01  -9.39397e-02  -8.73891e-01
Si    1.07536e+01   5.63025e+00  -1.24585e-02 -4.67273e-01  -1.64031e-01  -1.87582e+00
Si    2.95422e+00   8.26278e+00   1.89533e-01 -9.67675e-01   3.96867e-02  -1.72261e+00
Si    5.89640e-02   8.00999e+00   2.63874e+00 -2.30114e+00   1.99212e+00   2.04735e+00
Si    2.52618e+00   5.43396e+00   2.52967e+00  1.70903e+00   2.34356e-01   1.09295e+00
Si    1.28312e+00   6.97890e+00   1.20170e+00  2.02135e+00  -1.90483e+00  -7.23309e-02
Si    4.35882e+00   9.52405e+00   1.60227e+00 -2.07169e+00   1.39001e+00  -1.75970e+00
Si    1.39612e+00   9.37479e+00   4.08373e+00 -1.17786e+00   6.79064e-01  -4.71379e-01
Si    4.19763e+00   6.68891e+00   4.01254e+00 -1.26478e+00   2.70935e-01  -1.43413e+00
Si    5.64324e+00   5.40564e+00  -1.30225e-01 -2.94740e-01  -2.52320e-01   2.40639e+00
Si    8.02977e+00   8.22082e+00   1.07682e+01  1.10180e+00   3.08726e-01  -6.97649e-01
Si    5.65467e+00   8.08458e+00   2.65616e+00  2.40388e-01  -9.71978e-01   2.11198e+00
Si    8.07169e+00   5.41989e+00   2.81656e+00  2.52428e+00  -1.73134e+00   7.18013e-01
Si    7.04224e+00   6.72495e+00   1.39306e+00 -2.63698e+00   7.02441e-01  -2.08577e+00
Si    9.52410e+00   9.44662e+00   1.23394e+00  2.72836e-01  -2.82603e-01   1.80917e-01
Si    6.85952e+00   9.60065e+00   4.01983e+00 -1.59283e+00  -4.92230e-01   1.01354e+00
Si    9.56097e+00   6.63143e+00   4.17184e+00 -9.18166e-02   1.16781e+00  -1.27213e+00
Si    1.09579e+01   1.09167e+01   5.40874e+00 -4.78610e-01  -1.38027e+00  -1.51645e+00
Si    2.47785e+00   2.78438e+00   5.59239e+00  1.78857e+00  -8.80111e-01  -1.56084e+00
Si    3.80433e-02   2.73224e+00   8.31949e+00  1.32483e+00  -2.03308e+00   1.03194e-01
Si    2.68360e+00  -2.34627e-01   8.18214e+00  5.01330e-01   1.49656e+00  -2.02642e-01
Si    1.36995e+00   1.21625e+00   6.86363e+00 -5.44583e-01   1.29088e+00   1.56590e+00
Si    3.86746e+00   4.21552e+00   6.80849e+00  1.97709e+00  -1.30285e+00   5.23976e-02
Si    1.30835e+00   4.10621e+00   9.67752e+00  6.05527e-01   1.82772e+00  -9.00107e-01
Si    3.87264e+00   1.42240e+00   9.51489e+00  2.55452e-01  -3.80950e-02  -6.34296e-01
Si    5.23784e+00   1.08316e+01   5.59119e+00  3.21120e+00   1.18220e+00  -2.39168e+00
Si    8.25019e+00   2.57509e+00   5.44733e+00  5.68423e-01   7.37541e-01   9.56601e-01
Si    5.34238e+00   2.74780e+00   8.13959e+00  7.04315e-02   4.23964e-01  -1.84104e-02
Si    8.14751e+00   8.47478e-02   8.03748e+00  1.05928e+00  -1.29655e+00   2.41905e-01
Si    6.80475e+00   1.40669e+00   6.76576e+00 -1.87015e+00  -5.25619e-01   1.45936e-01
Si    9.58487e+00   3.88111e+00   7.01122e+00 -7.76917e-01   1.71877e+00  -3.54183e+00
Si    6.96240e+00   3.99608e+00   9.47536e+00 -2.40143e+00   4.27165e-01  -1.45559e+00
Si    9.38495e+00   1.46194e+00   9.51222e+00  4.26936e-01  -6.95452e-01  -2.85511e-01
Si    1.09433e+01   5.28809e+00   5.46797e+00 -1.15402e+00  -1.25342e+00   4.58503e-01
Si    2.70250e+00   8.01821e+00   5.31506e+00  1.16731e+00  -6.03018e-01   1.05436e+00
Si    1.09566e+01   8.25407e+00   8.13863e+00 -6.33732e-01  -1.65656e+00  -1.75967e+00
Si    2.73560e+00   5.57106e+00   8.20608e+00 -1.21503e+00  -5.12880e-01   1.56984e+00
Si    1.32894e+00   6.72641e+00   6.73885e+00  7.03464e-01   1.15415e+00   7.81694e-01
Si    4.07434e+00   9.36291e+00   6.73580e+00 -1.03160e+00  -1.40730e+00   1.66082e+00
Si    1.26930e+00   9.48255e+00   9.56788e+00  1.90756e+00   1.52349e-01   1.74433e+00
Si    4.22856e+00   6.80492e+00   9.59937e+00 -5.66989e-01   1.07655e+00  -6.53551e-01
Si    5.44545e+00   5.39298e+00   5.46261e+00 -6.88484e-01  -2.14672e-01   7.32498e-01
Si    8.15449e+00   8.15425e+00   5.35358e+00  4.13390e-01  -8.87036e-01   5.38604e-01
Si    5.58396e+00   8.17413e+00   8.20014e+00 -1.06662e+00  -4.87268e-01  -8.19508e-01
Si    8.07338e+00   5.36528e+00   7.98941e+00  2.56661e+00  -4.66966e-01   2.05394e+00
Si    6.83350e+00   6.67645e+00   6.77791e+00 -1.04857e+00   2.66469e+00  -1.23824e+00
Si    9.67627e+00   9.43394e+00   6.61636e+00 -1.82843e+00   1.52577e+00   1.44432e+00
Si    6.67924e+00   9.76704e+00   9.50603e+00  1.05398e+00  -9.03909e-01  -2.67102e-01
Si    9.40237e+00   6.96767e+00   9.24065e+00 -2.75724e-01  -1.40816e+00   1.67695e+00
