64
Lattice="10.862 0 0 0 10.862 0 0 0 10.862 " PBC="1 1 1" Properties=species:S:1:pos:R:3:forces:R:3 energy="-263.85375"
Si    1.07502e+01   4.68296e-02   1.09878e+01  7.69801e-01  -5.85196e-01  -1.69297e+00
Si    2.80294e+00   2.59682e+00  -5.17952e-02  2.09780e-01   9.92468e-01   1.32738e-01
Si    1.45357e-01   2.73043e+00   2.74837e+00  6.77635e-01  -1.25548e+00   3.86750e-01
Si    2.75579e+00   1.08313e+01   2.63552e+00  1.29888e+00  -3.03643e-01   8.62363e-02
Si    1.47887e+00   1.32635e+00   1.29194e+00 -1.41485e+00   2.13104e-01   8.96305e-01
Si    3.99447e+00   4.03710e+00   1.37209e+00  4.40162e-01   1.97876e-01  -2.67570e-01
Si    1.45719e+00   4.16079e+00   4.07804e+00 -1.35168e+00  -7.15715e-01  -8.49115e-01
Si    4.16975e+00   1.38468e+00   4.06492e+00 -7.13965e-01   7.06569e-02  -6.27909e-01
Si    5.50721e+00   1.24540e-01   1.06967e+01  6.33649e-01  -6.01284e-01   1.66169e+00
Si    8.21151e+00   2.72239e+00   1.08300e+01 -1.67966e-01  -1.24908e-01  -4.36054e-01
Si    5.46724e+00   2.78194e+00   2.65964e+00 -3.69526e-01  -5.58497e-01   3.69280e-01
Si    8.10684e+00   6.50540e-02   2.76625e+00  8.37169e-01  -3.63609e-01  -1.97876e-01
Si    6.89898e+00   1.48823e+00   1.38563e+00 -1.27390e+00  -1.38945e+00  -1.14269e+00
Si    9.49545e+00   3.85232e+00   1.51295e+00  4.87640e-01   2.29329e+00  -1.76373e+00
Si    6.87449e+00   4.03482e+00   3.97441e+00 -6.29586e-01   7.58716e-01   7.53457e-01
Si    9.60779e+00   1.37494e+00   4.10300e+00 -5.66206e-01  -1.01960e-01   5.30579e-01
Si    1.08300e+01   5.33203e+00   6.32886e-02  5.10213e-01  -1.23835e+00   4.97037e-01
Si    2.62554e+00   8.02111e+00  -9.48234e-02  1.05990e+00  -1.71175e-02   1.49421e+00
Si   -3.28092e-02   8.21764e+00   2.68200e+00  4.44862e-01  -2.27987e+00  -7.25781e-01
Si    2.71272e+00   5.45789e+00   2.75015e+00  2.23987e+00  -1.17742e+00   7.74383e-01
Si    1.46623e+00   6.60861e+00   1.40537e+00 -2.96054e+00   2.87204e+00  -1.07935e+00
Si    4.11714e+00   9.45760e+00   1.09999e+00 -3.25291e-03  -1.21213e-01   2.03648e+00
Si    1.28108e+00   9.52937e+00   3.93526e+00  7.86365e-01   7.83837e-01   1.04790e+00
Si    4.11495e+00   6.64399e+00   4.22902e+00 -9.09839e-01   9.16196e-01  -3.87441e-02
Si    5.37856e+00   5.32967e+00  -2.40473e-02 -8.44879e-01  -4.78068e-01  -1.39439e-01
Si    7.98871e+00   8.15649e+00   1.09588e+01  1.08805e+00  -6.55612e-01  -5.53456e-01
Si    5.39857e+00   7.98812e+00   2.81031e+00 -1.46484e+00   1.21271e+00  -1.74256e+00
Si    8.17623e+00   5.41942e+00   2.63100e+00 -4.82759e-01   1.45095e+00   3.35069e-01
Si    6.55236e+00   6.77374e+00   1.22030e+00  2.24004e+00  -8.47207e-01   2.22009e+00
Si    9.40301e+00   9.47471e+00   1.40365e+00 -4.10087e-01   9.55705e-01   9.30900e-02
Si    6.70915e+00   9.47638e+00   3.96773e+00  1.24157e+00   5.14650e-01   1.77464e+00
Si    9.51697e+00   6.89474e+00   4.13035e+00 -8.13033e-02  -1.27911e+00  -5.38208e-01
Si    1.09241e+01   1.08094e+01   5.50476e+00 -3.01864e-01   4.45699e-01   3.83946e-02
Si    2.73851e+00   2.83882e+00   5.32188e+00  8.93427e-01  -1.46504e+00   1.83985e+00
Si    7.51088e-02   2.70658e+00   8.11509e+00  2.03881e-01   1.85420e+00  -2.36573e-01
Si    2.66256e+00  -5.99480e-03   8.17644e+00  9.08003e-01  -1.70767e+00   7.22322e-03
Si    1.46303e+00   1.39261e+00   6.84171e+00 -5.06808e-01   1.40146e-01  -1.87387e+00
Si    3.96751e+00   4.28164e+00   6.76468e+00 -7.85742e-01  -6.96925e-01   4.49464e-01
Si    1.52308e+00   4.03370e+00   9.52569e+00 -2.16303e+00   1.14207e-01   3.15959e-01
Si    4.12547e+00   1.38228e+00   9.37999e+00 -6.59181e-02   3.45753e-01  -7.99636e-01
Si    5.56273e+00   1.09532e+01   5.44213e+00 -2.21437e+00  -2.15880e+00  -1.65984e+00
Si    8.10627e+00   2.74857e+00   5.42785e+00  1.51937e+00  -4.61805e-01  -1.22298e-02
Si    5.35517e+00   2.87754e+00   7.95369e+00 -3.52909e-02  -1.44487e+00   1.02460e+00
Si    8.15191e+00   1.30959e-01   8.11517e+00 -1.71259e-01  -1.54238e+00   2.87856e-01
Si    6.72574e+00   1.37554e+00   6.74868e+00  1.43834e+00   1.85523e+00   1.00495e+00
Si    9.52552e+00   4.17809e+00   6.76117e+00 -4.26477e-01  -1.72866e+00   6.52202e-01
Si    6.69861e+00   3.96999e+00   9.51227e+00  7.26141e-01   7.21430e-01  -5.05411e-01
Si    9.56031e+00   1.44442e+00   9.39987e+00 -2.53801e-01  -9.35678e-01   1.56058e+00
Si    1.09362e+01   5.37452e+00   5.40987e+00  2.25114e-02   2.67697e+00   1.08555e+00
Si    2.53637e+00   8.19549e+00   5.37937e+00  1.45513e+00  -1.51619e+00   6.37892e-01
Si    1.06736e+01   8.09906e+00   8.28130e+00  1.04335e+00  -1.12554e+00   6.34341e-01
Si    2.68473e+00   5.61678e+00   8.32695e+00  1.79592e+00  -2.36676e+00  -3.26100e-01
Si    1.40067e+00   6.80240e+00   7.05920e+00 -2.71666e+00   1.36130e+00  -3.33382e+00
Si    4.08299e+00   9.48380e+00   6.63950e+00 -8.54232e-01   1.35069e+00   9.09422e-01
Si    1.25546e+00   9.37761e+00   9.59093e+00 -6.76279e-01   2.26398e+00  -5.83230e-01
Si    4.14274e+00   6.79884e+00   9.56445e+00  1.47778e-01   5.39183e-01  -5.89036e-01
Si    5.56216e+00   5.28501e+00   5.52859e+00  1.96019e-02   1.20480e+00  -1.39986e+00
Si    8.13297e+00   8.22721e+00   5.50900e+00 -3.89654e-01  -2.04831e-01  -1.44412e+00
Si    5.37142e+00   8.19691e+00   8.09674e+00  9.33899e-01  -6.09225e-01   3.25864e-01
Si    8.03670e+00   5.39353e+00   8.15641e+00  6.54577e-01   2.50418e-01   5.08965e-01
Si    6.80052e+00   6.81738e+00   6.75878e+00 -4.82350e-01  -4.93849e-02   9.76072e-01
Si    9.49718e+00   9.44054e+00   6.89671e+00 -2.11284e-01   1.91100e+00  -7.21492e-01
Si    6.84004e+00   9.47142e+00   9.50324e+00 -5.81056e-01   1.34133e+00  -1.46135e+00
Si    9.36510e+00   6.68118e+00   9.67454e+00 -2.46272e-01   4.98957e-01  -6.07122e-01
