64
Lattice="10.862 0 0 0 10.862 0 0 0 10.862 " PBC="1 1 1" Properties=species:S:1:pos:R:3:forces:R:3 energy="-263.41265"
Si    1.08702e+01  -1.03230e-01   1.08715e+01 -8.86551e-01   6.65809e-01   6.66632e-01
Si    2.65429e+00   2.76148e+00   1.21199e-01 -1.82048e-01  -1.43811e-01  -1.66213e+00
Si    4.53428e-02   2.54229e+00   2.71367e+00 -3.12393e-01   1.28413e+00  -3.42215e-01
Si    2.75605e+00   1.07916e+01   2.77087e+00  4.98023e-01   1.29216e+00  -3.86156e-01
Si    1.37964e+00   1.19201e+00   1.34585e+00  3.26517e-01   5.69355e-01   5.72012e-01
Si    4.21562e+00   4.01445e+00   1.29038e+00 -1.57418e+00   5.21514e-01   1.83923e+00
Si    1.31004e+00   4.07703e+00   4.16101e+00  1.12994e+00  -1.50576e+00  -4.30389e-01
Si    4.02837e+00   1.46524e+00   4.07590e+00  2.03860e-01  -9.93454e-01  -1.24413e-01
Si    5.42942e+00   9.10200e-02   1.07321e+01 -9.41773e-02   7.52565e-01   1.56521e+00
Si    8.03093e+00   2.73118e+00   1.07477e+01 -7.17128e-01  -1.94653e-02   4.99440e-01
Si    5.47128e+00   2.80456e+00   2.83053e+00 -1.10349e+00  -1.51459e+00  -1.58371e+00
Si    8.24912e+00   4.33520e-02   2.70033e+00 -2.83275e+00  -2.02183e+00  -3.01263e-01
Si    6.75400e+00   1.36181e+00   1.51703e+00  2.21595e-01   5.40852e-01  -2.16486e+00
Si    9.50149e+00   3.95075e+00   1.23577e+00  8.28031e-01   3.50040e-03   1.61600e+00
Si    6.75336e+00   4.03738e+00   4.08794e+00  1.60796e+00   9.58394e-01   2.66533e+00
Si    9.54472e+00   1.15957e+00   3.99949e+00  2.11114e+00   1.30128e+00   1.04700e+00
Si    1.08089e+01   5.58420e+00   1.51662e-01 -6.03327e-01  -4.56606e-01  -7.42233e-01
Si    2.70755e+00   8.17841e+00   8.91726e-02  9.00012e-01   1.24654e+00   5.41094e-02
Si   -1.03180e-01   8.21411e+00   2.71054e+00  1.45285e+00  -5.61908e-01  -1.23777e+00
Si    2.74945e+00   5.35206e+00   2.75142e+00  1.63825e-01  -7.15476e-01  -6.07983e-01
Si    1.47140e+00   6.77984e+00   1.42370e+00 -1.55724e+00   6.75340e-01   9.19394e-01
Si    4.19122e+00   9.62619e+00   1.41131e+00 -6.03231e-01  -1.10562e+00  -1.53481e+00
Si    1.50346e+00   9.36500e+00   4.00708e+00 -9.06928e-01  -6.84569e-01   2.89216e-01
Si    4.00257e+00   6.79022e+00   4.03090e+00  1.76172e+00  -3.16023e-01  -1.35439e+00
Si    5.42106e+00   5.45370e+00   3.57540e-02  2.46452e-01   1.40867e+00  -1.37893e+00
Si    7.96258e+00   8.31024e+00   1.07669e+01  2.52224e-01  -1.85088e+00  -2.37215e-01
Si    5.47855e+00   8.10387e+00   2.60788e+00  1.42052e-01   2.39741e-01   1.92975e+00
Si    8.39446e+00   5.21711e+00   2.91198e+00 -2.03827e+00   1.14341e+00  -2.17926e+00
Si    6.88458e+00   6.69291e+00   1.40451e+00  8.60045e-01  -2.44887e-01  -5.56918e-02
Si    9.34496e+00   9.50044e+00   1.28085e+00  1.59877e+00   1.70067e-01   2.83748e-01
Si    6.86456e+00   9.45068e+00   4.11690e+00 -1.30424e+00   1.33504e+00  -1.81997e+00
Si    9.50010e+00   6.88569e+00   4.06405e+00  2.23076e+00  -2.44384e+00  -3.55451e-02
Si    1.09679e+01   1.06695e+01   5.27145e+00 -1.85657e-01   1.48784e+00   9.24862e-01
Si    2.76028e+00   2.63165e+00   5.58554e+00 -1.56925e+00   1.56720e+00  -1.14522e+00
Si    1.01050e-01   2.66913e+00   8.16615e+00 -5.93223e-02   6.57449e-01   1.07261e+00
Si    2.69709e+00  -8.72487e-02   8.03639e+00 -5.85136e-01   5.37546e-01   2.06512e+00
Si    1.30345e+00   1.25732e+00   6.75781e+00  3.85250e-01  -4.29296e-01  -3.15372e-01
Si    3.95678e+00   4.21103e+00   6.81722e+00  1.47516e+00  -1.67373e+00   4.72034e-01
Si    1.23754e+00   4.27464e+00   9.63266e+00  1.45131e+00  -1.94209e+00  -3.88316e-01
Si    4.01853e+00   1.45604e+00   9.45532e+00 -1.55868e+00  -1.36027e+00   5.58957e-01
Si    5.33716e+00   1.09004e+01   5.38473e+00  7.43812e-01  -1.08565e+00   2.08706e-01
Si    8.32965e+00   2.55000e+00   5.35997e+00 -1.55131e+00   1.74666e+00   5.16468e-01
Si    5.37757e+00   2.64707e+00   8.13775e+00 -9.10921e-02   2.26838e+00  -1.69453e+00
Si    8.19791e+00   1.28144e-01   7.98009e+00 -1.04821e-01   9.09610e-01   2.10979e+00
Si    6.76003e+00   1.39147e+00   6.72080e+00 -4.52839e-02   8.42543e-03  -6.19663e-01
Si    9.66889e+00   3.99317e+00   6.78298e+00 -1.76066e+00   3.82886e-01   1.05598e-01
Si    6.63240e+00   4.21336e+00   9.32463e+00  5.05187e-01  -1.81465e+00   2.00952e+00
Si    9.60313e+00   1.38554e+00   9.60945e+00 -1.11074e+00  -4.04969e-01  -1.77505e+00
Si    1.09214e+01   5.48930e+00   5.49379e+00 -1.22164e+00   2.26284e-01  -4.47859e-01
Si    2.74299e+00   7.95297e+00   5.40451e+00 -2.36204e+00   6.83350e-01   1.74220e+00
Si    1.07023e+01   8.22152e+00   8.24558e+00  2.53155e-01   1.65017e-01  -7.71579e-01
Si    2.78497e+00   5.48364e+00   8.29552e+00 -1.51363e+00   7.99737e-01   3.68689e-01
Si    1.21246e+00   6.74470e+00   7.03671e+00  1.85072e+00   9.71297e-01  -1.25129e+00
Si    3.96453e+00   9.40412e+00   6.71349e+00  1.45535e+00   5.84975e-01  -4.57926e-01
Si    1.29859e+00   9.46417e+00   9.57799e+00  1.18049e+00  -7.02349e-02  -1.27704e+00
Si    4.09262e+00   7.01080e+00   9.50628e+00  3.29755e-01  -1.93457e+00   1.18714e+00
Si    5.29694e+00   5.52807e+00   5.43167e+00  1.82299e+00  -8.56506e-01   2.53834e-02
Si    8.23444e+00   8.11168e+00   5.29370e+00 -1.18871e+00   1.40098e+00   3.52815e+00
Si    5.43082e+00   8.21554e+00   8.09943e+00  4.12901e-01   2.18648e-01  -8.79516e-01
Si    8.16110e+00   5.39666e+00   8.18586e+00  7.62291e-01   7.41927e-02  -2.28425e+00
Si    6.84358e+00   6.81310e+00   6.77085e+00 -2.22373e-01  -6.14577e-02  -3.06506e-01
Si    9.48978e+00   9.66634e+00   6.72781e+00  5.13524e-01  -2.94740e+00  -7.24793e-01
Si    6.73032e+00   9.71606e+00   9.30406e+00  6.12701e-01  -7.71251e-01   3.14134e-01
Si    9.41463e+00   6.78395e+00   9.51442e+00 -4.44050e-01   1.13193e+00   1.36140e+00
