64
Lattice="10.862 0 0 0 10.862 0 0 0 10.862 " PBC="1 1 1" Properties=species:S:1:pos:R:3:forces:R:3 energy="-264.18824"
Si    1.10769e+01  -2.36273e-01   1.09752e+01 -8.87528e-02  -1.46615e-01  -7.14592e-01
Si    2.63813e+00   2.76067e+00  -1.21601e-02  1.84393e+00  -9.25686e-01   6.49916e-03
Si   -9.79943e-02   2.79426e+00   2.61849e+00  1.87704e-02   1.43227e-01  -1.34912e+00
Si    2.65653e+00   1.09275e+01   2.62646e+00  4.39806e-01   8.02672e-04   2.12582e+00
Si    1.33535e+00   1.34158e+00   1.27880e+00 -4.77170e-01   1.32840e+00   9.56611e-01
Si    4.12469e+00   4.13377e+00   1.32433e+00 -1.86523e+00  -8.05233e-01   7.72550e-01
Si    1.29302e+00   4.05539e+00   3.98890e+00 -6.28570e-02   1.33265e+00   1.72773e-01
Si    4.08284e+00   1.38825e+00   4.12412e+00 -4.99555e-01   1.91686e-01  -1.49549e+00
Si    5.40450e+00  -1.96339e-01   1.09725e+01  4.25714e-01   1.33717e+00  -3.60253e-02
Si    8.15848e+00   2.63210e+00   1.08888e+01 -4.72267e-01  -3.09971e-01   3.94488e-01
Si    5.45879e+00   2.80457e+00   2.71353e+00 -3.22566e-01  -1.79773e+00  -3.13390e-01
Si    8.25058e+00   8.22337e-02   2.91139e+00 -1.43162e+00  -3.16339e+00  -1.53950e+00
Si    6.81407e+00   1.18082e+00   1.48010e+00 -5.55237e-01   1.83943e+00  -7.19394e-01
Si    9.34493e+00   4.28442e+00   1.18037e+00  1.90770e+00  -1.00706e+00   1.01608e+00
Si    6.81293e+00   4.10475e+00   4.00463e+00  2.36885e-01   1.32846e-01   1.66695e+00
Si    9.54626e+00   1.42733e+00   4.04003e+00 -2.34667e-01   1.87762e+00   6.38659e-01
Si    1.09014e+01   5.55753e+00  -1.52475e-01 -1.71640e-01  -2.45179e+00   7.38901e-01
Si    2.55021e+00   8.11151e+00   2.72789e-02  2.30643e+00  -9.33419e-04  -1.39398e-01
Si   -2.15889e-01   8.23091e+00   2.72362e+00  2.88623e+00  -2.02879e+00   1.60035e+00
Si    2.64160e+00   5.51165e+00   2.66817e+00  8.77639e-01  -1.00594e+00   1.00985e-01
Si    1.21773e+00   6.78710e+00   1.36542e+00 -4.36451e-01   1.19262e+00   6.09411e-01
Si    3.96889e+00   9.48350e+00   1.42913e+00 -2.34809e-01  -1.13972e+00  -6.70854e-01
Si    1.28620e+00   9.56070e+00   4.07143e+00 -4.25571e-01   7.13376e-01  -8.59231e-02
Si    4.16746e+00   6.77009e+00   3.98760e+00 -1.52980e+00   1.12373e+00   1.26771e-01
Si    5.53249e+00   5.34289e+00   8.09431e-02  2.97593e-01   8.36941e-01  -2.48990e+00
Si    8.12186e+00   8.17121e+00   1.08925e+01  1.10983e+00  -1.53615e+00  -5.64501e-01
Si    5.50517e+00   8.22124e+00   2.66762e+00 -1.23109e+00  -3.67911e-01   7.59724e-01
Si    8.18650e+00   5.53225e+00   2.78107e+00 -1.22925e+00  -4.41378e-02  -1.03091e+00
Si    6.75104e+00   6.81651e+00   1.35396e+00  1.32017e+00  -1.30836e-01   5.52809e-01
Si    9.52788e+00   9.45856e+00   1.37394e+00 -2.04569e+00   2.11279e+00  -2.42198e-01
Si    6.68098e+00   9.51489e+00   4.20168e+00  2.35185e+00   6.88967e-03  -1.61716e+00
Si    9.41953e+00   6.85950e+00   4.17444e+00  7.71868e-01   5.25602e-02  -1.60107e-01
Si    1.07687e+01   1.10747e+01   5.44239e+00  1.77104e+00  -1.92579e+00   9.26715e-01
Si    2.63220e+00   2.75621e+00   5.35627e+00  1.21308e+00   3.49046e-01   3.38200e-01
Si   -6.60353e-02   2.60150e+00   8.15924e+00 -7.42210e-01   6.08583e-01   6.04864e-01
Si    2.79836e+00  -3.00858e-03   7.98361e+00  2.75546e-01   6.61090e-01   1.12231e+00
Si    1.39810e+00   1.51082e+00   6.80255e+00 -4.65673e-01  -1.88333e+00  -5.51460e-01
Si    4.08333e+00   3.99564e+00   6.79410e+00 -5.84148e-01   4.28473e-01  -4.11739e-01
Si    1.31246e+00   3.96491e+00   9.43482e+00 -5.76313e-01   1.30216e+00   1.82570e-01
Si    4.09923e+00   1.20933e+00   9.60951e+00 -2.20110e-01   1.30377e+00  -9.64355e-01
Si    5.41222e+00   1.08510e+01   5.42389e+00 -1.12753e+00  -3.20654e-01   2.28999e+00
Si    8.15585e+00   2.68126e+00   5.44615e+00 -5.01368e-01   2.16698e-01  -8.51267e-01
Si    5.47598e+00   2.62156e+00   8.11391e+00  1.49931e-01  -4.63379e-01   8.42998e-01
Si    8.18023e+00  -1.05131e-01   8.34939e+00  7.87624e-01   1.48734e+00   3.08329e-01
Si    6.90855e+00   1.19762e+00   6.83369e+00 -7.23890e-01   7.61612e-01  -1.51531e-02
Si    9.54256e+00   4.07632e+00   6.65520e+00 -2.44714e-01  -4.06207e-01   2.00334e+00
Si    6.94183e+00   4.03900e+00   9.39056e+00 -1.50425e+00  -5.78916e-01   1.08366e+00
Si    9.68904e+00   1.16969e+00   9.85295e+00 -1.19217e+00   7.69661e-01  -2.81954e+00
Si    1.08718e+01   5.49210e+00   5.44011e+00  7.39918e-01   2.93932e-01  -9.11266e-01
Si    2.71997e+00   8.17989e+00   5.38851e+00  7.47016e-01  -4.82934e-01  -1.73435e+00
Si    1.09255e+01   8.21827e+00   7.94377e+00 -4.68970e-01  -1.69406e-01   2.81907e+00
Si    2.64014e+00   5.36122e+00   8.12273e+00  1.30586e+00   1.10687e+00   6.07545e-03
Si    1.43240e+00   6.93422e+00   6.72313e+00 -3.99661e-01  -2.65264e+00   1.08011e-02
Si    4.06433e+00   9.27555e+00   6.86101e+00  1.41878e-01   3.48845e+00  -2.17934e+00
Si    1.54028e+00   9.50454e+00   9.35711e+00 -1.90858e+00  -4.86312e-01   3.18118e-02
Si    4.12404e+00   6.77901e+00   9.56222e+00 -7.63382e-01  -5.65584e-01  -1.18366e-01
Si    5.36622e+00   5.42916e+00   5.40708e+00  1.16024e+00  -5.75457e-01   2.09060e-01
Si    8.09118e+00   8.17655e+00   5.51354e+00  2.65405e-01   1.04498e+00   3.92803e-02
Si    5.45909e+00   8.23866e+00   8.18581e+00  5.43278e-01  -2.99184e+00   7.63201e-01
Si    8.17974e+00   5.45398e+00   8.05893e+00  2.79110e-01  -2.50990e-01  -7.27225e-01
Si    6.75226e+00   6.82432e+00   6.75195e+00 -5.48660e-01  -5.29000e-01   9.54741e-01
Si    9.47495e+00   9.60175e+00   6.86423e+00  1.39401e-02  -8.79981e-02  -1.63896e+00
Si    6.78552e+00   9.45079e+00   9.57819e+00 -2.51005e-01   2.74572e-01   2.20366e-01
Si    9.54394e+00   6.74259e+00   9.42210e+00 -6.51436e-01   2.91237e+00  -9.05273e-01
