64
Lattice="10.862 0.0 0.0 0.0 10.862 0.0 0.0 0.0 10.862" Properties=species:S:1:pos:R:3:atomic_forces_forces:R:3:kliff_descriptor_symmetry_function_descriptors:R:51 PBC="1 1 1" energy_energy=-262.6728 kliff_descriptor_symmetry_function_descriptor_type=symmetry_function kliff_descriptor_symmetry_function_cut_dists="{\"Si-Si\": 4.0}" kliff_descriptor_symmetry_function_cut_name=cos kliff_descriptor_symmetry_function_hyperparams=set51 pbc="T T T"
Si      10.85710000       0.04135860      10.75050000       0.18517200      -1.42186000       1.36386000       1.47596357       1.21693385       0.98548897       0.72185902       0.43353250       0.19414091       0.02670717       0.00052912       0.00547782       0.02282793       0.00231068       0.01966079       0.00421722       0.01768088       0.00177231       0.01523597       0.00268727       0.01138357       0.00112201       0.00981831       0.00143068       0.00614811       0.00059182       0.00530925       0.00023242       0.00421471       0.00000179       0.00122275       0.00058195       0.00255198       0.00023749       0.00220752       0.00009293       0.00175417       0.00000072       0.00050903       0.00009661       0.00044077       0.00003833       0.00038249       0.00001488       0.00030450       0.00000012       0.00008839       0.00000421       0.00002054       0.00000159       0.00001791       0.00000061       0.00001430       0.00000415
Si       2.68827000       2.54804000      -0.10146700       0.71828600       1.30935000       0.60228800       1.38315479       1.13239847       0.90929642       0.65705847       0.38522778       0.16569668       0.02052388       0.00032456       0.00224278       0.01754121       0.00035354       0.01565197       0.00173506       0.01360286       0.00027096       0.01213877       0.00111513       0.00877700       0.00017142       0.00783329       0.00060111       0.00475526       0.00009046       0.00424460       0.00001465       0.00339970       0.00000010       0.00091717       0.00024908       0.00198320       0.00003642       0.00177053       0.00000551       0.00141785       0.00000004       0.00038157       0.00004301       0.00034611       0.00000597       0.00030907       0.00000078       0.00024740       0.00000001       0.00006625       0.00000202       0.00001648       0.00000026       0.00001472       0.00000003       0.00001177       0.00000313
Si       0.12234500       2.68721000       2.83351000      -0.82789200       0.53277000      -0.67570700       1.45852537       1.21001324       0.98545868       0.72662277       0.43962037       0.19807369       0.02729282       0.00052682       0.00656636       0.01414252       0.00354974       0.01112590       0.00505165       0.01085634       0.00273249       0.00853717       0.00321437       0.00688193       0.00174041       0.00540797       0.00170718       0.00363592       0.00092561       0.00285436       0.00036818       0.00212976       0.00000187       0.00061804       0.00069149       0.00146181       0.00037564       0.00114596       0.00014948       0.00085428       0.00000076       0.00024803       0.00011354       0.00023653       0.00006191       0.00018489       0.00002466       0.00013758       0.00000012       0.00003999       0.00000482       0.00000979       0.00000265       0.00000762       0.00000105       0.00000565       0.00000165
Si       2.66113000      10.77600000       2.56459000       1.31216000       0.25596200       1.23595000       1.51677443       1.25511005       1.02067660       0.75249947       0.45692493       0.20821620       0.02988248       0.00064290       0.00819741       0.02498265       0.00409314       0.02087839       0.00633460       0.01933008       0.00316150       0.01615698       0.00406223       0.01242256       0.00202574       0.01038607       0.00218161       0.00669095       0.00108668       0.00559603       0.00044675       0.00438315       0.00000310       0.00131187       0.00089818       0.00276567       0.00044669       0.00231418       0.00018356       0.00181308       0.00000127       0.00054252       0.00015257       0.00047324       0.00007565       0.00039632       0.00003106       0.00031065       0.00000021       0.00009291       0.00000690       0.00002164       0.00000341       0.00001815       0.00000140       0.00001423       0.00000425
Si       1.32418000       1.28421000       1.38388000      -0.12625700       0.80456100      -1.08841000       1.50461657       1.25310516       1.02510056       0.76106191       0.46593086       0.21406669       0.03104238       0.00067061       0.00898545       0.01712925       0.00504464       0.01318845       0.00694281       0.01321347       0.00389917       0.01016984       0.00445091       0.00844745       0.00250109       0.00649763       0.00238879       0.00451681       0.00134332       0.00347133       0.00055108       0.00255694       0.00000358       0.00073656       0.00098214       0.00184769       0.00055284       0.00141839       0.00022677       0.00104393       0.00000147       0.00030078       0.00016613       0.00030970       0.00009368       0.00023725       0.00003842       0.00017435       0.00000025       0.00005025       0.00000743       0.00001367       0.00000420       0.00001044       0.00000172       0.00000765       0.00000221
Si       4.08030000       4.11655000       1.31129000      -1.24774000      -1.80469000       1.73467000       1.32813676       1.08775922       0.87367934       0.63152989       0.37067682       0.16028815       0.02071343       0.00040923       0.00258510       0.01288199       0.00093790       0.01123479       0.00198480       0.00994037       0.00071738       0.00867295       0.00125878       0.00635932       0.00045195       0.00555249       0.00066568       0.00340452       0.00023673       0.00297557       0.00008464       0.00237721       0.00000046       0.00069172       0.00026816       0.00139594       0.00009402       0.00122181       0.00003345       0.00097736       0.00000018       0.00028554       0.00004365       0.00023554       0.00001485       0.00020675       0.00000523       0.00016580       0.00000003       0.00004884       0.00000184       0.00001058       0.00000059       0.00000933       0.00000020       0.00000752       0.00000225
Si       1.33915000       4.11715000       4.25500000       1.05393000      -0.88973200      -0.04239670       1.48040126       1.22460449       0.99473332       0.73130760       0.44114546       0.19841039       0.02737807       0.00053315       0.00833801       0.02142765       0.00421688       0.01730652       0.00643339       0.01659719       0.00325004       0.01341385       0.00411452       0.01068725       0.00207451       0.00864724       0.00220124       0.00577365       0.00110667       0.00467908       0.00042070       0.00355008       0.00000198       0.00100825       0.00090119       0.00239805       0.00045111       0.00194797       0.00017132       0.00148070       0.00000080       0.00042138       0.00015131       0.00041508       0.00007503       0.00033880       0.00002843       0.00025850       0.00000013       0.00007386       0.00000670       0.00001948       0.00000326       0.00001604       0.00000123       0.00001232       0.00000354
Si       4.19928000       1.24519000       3.93564000      -1.11945000       0.84177700      -1.81312000       1.46685706       1.21927669       0.99517391       0.73633682       0.44843730       0.20471017       0.02958627       0.00066887       0.00813944       0.01718610       0.00450826       0.01355492       0.00633325       0.01338289       0.00350688       0.01055652       0.00411074       0.00870058       0.00227499       0.00686483       0.00224638       0.00476810       0.00124210       0.00376382       0.00050112       0.00285905       0.00000274       0.00091825       0.00094900       0.00202477       0.00052394       0.00159970       0.00021097       0.00121606       0.00000114       0.00039152       0.00017028       0.00036845       0.00009364       0.00029182       0.00003756       0.00022226       0.00000020       0.00007189       0.00000856       0.00001918       0.00000466       0.00001528       0.00000186       0.00001169       0.00000381
Si       5.44875000      -0.12606900      10.88730000       1.38871000      -0.10621300      -1.21953000       1.54908570       1.29200612       1.05904816       0.78912597       0.48659852       0.22652355       0.03405629       0.00079313       0.01277422       0.02270821       0.00711245       0.01704644       0.00994347       0.01761146       0.00553886       0.01320685       0.00645776       0.01136589       0.00359997       0.00850811       0.00353103       0.00616036       0.00197051       0.00459984       0.00077961       0.00326563       0.00000435       0.00086614       0.00149235       0.00257124       0.00083406       0.00191294       0.00032952       0.00135324       0.00000181       0.00035696       0.00026765       0.00044980       0.00015002       0.00033218       0.00005912       0.00023327       0.00000031       0.00006084       0.00001339       0.00002156       0.00000755       0.00001571       0.00000296       0.00001088       0.00000278
Si       8.19065000       2.63131000      10.87030000      -1.21394000       0.87575600      -0.32057000       1.54289640       1.28539876       1.05250648       0.78321895       0.48216731       0.22408741       0.03364604       0.00078602       0.01212850       0.02263469       0.00689870       0.01740488       0.00942572       0.01753553       0.00536488       0.01347469       0.00610375       0.01129444       0.00347796       0.00866866       0.00332289       0.00610298       0.00189629       0.00467638       0.00079714       0.00344094       0.00000526       0.00098140       0.00139476       0.00253479       0.00079764       0.00193767       0.00033543       0.00142333       0.00000221       0.00040552       0.00024618       0.00043821       0.00014136       0.00033339       0.00005949       0.00024405       0.00000039       0.00006938       0.00001189       0.00002044       0.00000688       0.00001542       0.00000290       0.00001122       0.00000318
Si       5.64753000       2.64317000       2.58819000      -1.57371000      -0.08298130      -0.56630600       1.39974100       1.14723503       0.92254336       0.66827879       0.39359110       0.17060073       0.02156216       0.00035782       0.00422008       0.01910879       0.00160201       0.01649072       0.00323850       0.01475483       0.00122353       0.01273985       0.00205213       0.00944868       0.00076890       0.00816545       0.00108394       0.00506403       0.00040137       0.00438146       0.00013519       0.00346783       0.00000051       0.00099546       0.00043590       0.00207848       0.00015866       0.00180124       0.00005306       0.00142689       0.00000020       0.00040912       0.00007070       0.00035070       0.00002484       0.00030484       0.00000818       0.00024187       0.00000003       0.00006919       0.00000296       0.00001565       0.00000097       0.00001367       0.00000031       0.00001087       0.00000310
Si       8.22598000       0.03288050       2.83549000       0.48088500      -2.13679000       0.45088500       1.39634599       1.14386119       0.91967491       0.66649442       0.39344446       0.17175730       0.02246786       0.00042681       0.00542815       0.02031662       0.00225098       0.01713945       0.00419089       0.01567321       0.00173822       0.01322054       0.00268335       0.01002145       0.00111327       0.00845138       0.00143790       0.00535986       0.00059678       0.00451874       0.00019393       0.00350299       0.00000050       0.00100085       0.00059007       0.00219362       0.00024502       0.00184856       0.00007948       0.00143234       0.00000020       0.00040882       0.00009954       0.00036813       0.00004137       0.00030996       0.00001338       0.00023993       0.00000003       0.00006834       0.00000444       0.00001629       0.00000185       0.00001369       0.00000059       0.00001058       0.00000300
Si       6.98708000       1.11241000       1.28074000      -1.36285000       1.68749000       0.32952100       1.52349690       1.26524463       1.03237404       0.76421683       0.46640514       0.21377725       0.03095748       0.00066764       0.01042442       0.02296534       0.00536757       0.01790849       0.00806874       0.01778586       0.00415316       0.01387028       0.00518852       0.01144861       0.00266900       0.00892909       0.00279680       0.00618030       0.00143742       0.00482092       0.00053301       0.00350540       0.00000276       0.00091718       0.00115723       0.00256283       0.00059400       0.00199960       0.00021979       0.00145407       0.00000112       0.00038056       0.00019836       0.00044136       0.00010155       0.00034455       0.00003742       0.00025060       0.00000019       0.00006563       0.00000909       0.00002041       0.00000463       0.00001595       0.00000169       0.00001161       0.00000305
Si       9.45202000       3.91512000       1.40095000       2.40284000       0.24844400       0.11650200       1.50130577       1.24362283       1.01210880       0.74661927       0.45340955       0.20649301       0.02960927       0.00063996       0.00737027       0.02227473       0.00365656       0.01856101       0.00567771       0.01724511       0.00281206       0.01437946       0.00362132       0.01109445       0.00178824       0.00926138       0.00192999       0.00598508       0.00094898       0.00500407       0.00038519       0.00390965       0.00000305       0.00115650       0.00078585       0.00247999       0.00038397       0.00207812       0.00015578       0.00162611       0.00000124       0.00048159       0.00013052       0.00042676       0.00006293       0.00035917       0.00002550       0.00028189       0.00000021       0.00008368       0.00000567       0.00001976       0.00000267       0.00001675       0.00000108       0.00001321       0.00000394
Si       6.76234000       4.18109000       3.93649000       0.19940900      -0.35631300       1.46487000       1.47869191       1.22543832       0.99725336       0.73496539       0.44490118       0.20104979       0.02805858       0.00056269       0.00774463       0.01772994       0.00405224       0.01403754       0.00597150       0.01366998       0.00312459       0.01082307       0.00381455       0.00873182       0.00199606       0.00691333       0.00203722       0.00466338       0.00106607       0.00369223       0.00042112       0.00273393       0.00000229       0.00071997       0.00083188       0.00190455       0.00043533       0.00150800       0.00017196       0.00111671       0.00000093       0.00029421       0.00013890       0.00031828       0.00007268       0.00025206       0.00002871       0.00018671       0.00000016       0.00004925       0.00000608       0.00001398       0.00000318       0.00001108       0.00000126       0.00000822       0.00000217
Si       9.63793000       1.41494000       4.21485000      -1.27325000      -0.24160500      -0.01211240       1.46570646       1.20463886       0.97219776       0.70859357       0.42216271       0.18664569       0.02479756       0.00045115       0.00579530       0.02342321       0.00237127       0.01999918       0.00445438       0.01810281       0.00181568       0.01546411       0.00283025       0.01161122       0.00114602       0.00992699       0.00150055       0.00623718       0.00060187       0.00533850       0.00022221       0.00416940       0.00000132       0.00111647       0.00060659       0.00256841       0.00023996       0.00220177       0.00008812       0.00172092       0.00000052       0.00046034       0.00009937       0.00043627       0.00003820       0.00037510       0.00001387       0.00029359       0.00000008       0.00007835       0.00000422       0.00001971       0.00000154       0.00001702       0.00000055       0.00001335       0.00000355
Si      10.98460000       5.28453000       0.10728600       0.36378200      -0.38895400       0.73092900       1.38865956       1.14380381       0.92417973       0.67349526       0.39980674       0.17499017       0.02258211       0.00039331       0.00490338       0.01288806       0.00244191       0.01042660       0.00376952       0.00988258       0.00187880       0.00799185       0.00239555       0.00625281       0.00119568       0.00505293       0.00127010       0.00329472       0.00063518       0.00265980       0.00023715       0.00200751       0.00000091       0.00056695       0.00051321       0.00131953       0.00025737       0.00106369       0.00009610       0.00080207       0.00000037       0.00022670       0.00008387       0.00021183       0.00004229       0.00017025       0.00001579       0.00012813       0.00000006       0.00003628       0.00000353       0.00000865       0.00000180       0.00000691       0.00000067       0.00000518       0.00000147
Si       2.48972000       8.16498000      -0.10538400       1.27988000      -1.04097000       1.48504000       1.54645372       1.29212033       1.06103583       0.79251358       0.49046577       0.22961179       0.03508015       0.00085304       0.01701866       0.02254001       0.00994362       0.01546498       0.01328092       0.01747673       0.00776796       0.01196376       0.00866196       0.01127364       0.00507542       0.00768709       0.00476332       0.00610576       0.00279784       0.00414029       0.00111511       0.00269642       0.00000516       0.00066391       0.00202858       0.00254522       0.00119553       0.00171218       0.00047703       0.00110693       0.00000221       0.00027193       0.00036874       0.00044382       0.00021869       0.00029377       0.00008745       0.00018706       0.00000041       0.00004573       0.00001878       0.00002110       0.00001125       0.00001357       0.00000451       0.00000840       0.00000203
Si      -0.04986100       8.31916000       2.80243000       1.89021000      -2.74247000      -1.42931000       1.58752305       1.32457229       1.08731887       0.81332895       0.50651435       0.24102968       0.03897816       0.00108302       0.01541700       0.03049467       0.00866541       0.02374308       0.01203386       0.02377367       0.00676665       0.01850645       0.00785320       0.01548118       0.00441895       0.01204693       0.00432370       0.00849711       0.00243526       0.00660867       0.00104323       0.00489151       0.00001083       0.00134405       0.00184582       0.00361088       0.00104104       0.00280610       0.00044616       0.00207624       0.00000461       0.00057067       0.00033799       0.00065474       0.00019114       0.00050788       0.00008196       0.00037545       0.00000084       0.00010326       0.00001757       0.00003339       0.00000998       0.00002580       0.00000428       0.00001904       0.00000524
Si       2.76031000       5.46190000       3.01631000       0.70631900      -1.43743000      -2.14674000       1.50342190       1.24767083       1.01734655       0.75256611       0.45920089       0.21094473       0.03107207       0.00071338       0.01150660       0.02443742       0.00601639       0.01894721       0.00897246       0.01902924       0.00469271       0.01474949       0.00584451       0.01236671       0.00305819       0.00958039       0.00320877       0.00676858       0.00168005       0.00523986       0.00063339       0.00379172       0.00000295       0.00096320       0.00136382       0.00286492       0.00071464       0.00221574       0.00026946       0.00160169       0.00000124       0.00040529       0.00024722       0.00051552       0.00012971       0.00039802       0.00004892       0.00028715       0.00000022       0.00007210       0.00001258       0.00002598       0.00000661       0.00002001       0.00000249       0.00001439       0.00000357
Si       1.50743000       6.72692000       1.57750000      -2.56675000       1.17412000      -1.09218000       1.39786486       1.14032732       0.91293958       0.65781586       0.38506468       0.16609579       0.02108281       0.00037145       0.00441502       0.02407264       0.00133315       0.02099077       0.00339838       0.01864328       0.00101908       0.01626398       0.00216509       0.01200261       0.00064146       0.01047898       0.00115271       0.00648357       0.00033570       0.00566656       0.00009253       0.00448212       0.00000022       0.00123639       0.00046920       0.00269335       0.00013326       0.00235741       0.00003619       0.00186642       0.00000009       0.00051446       0.00007819       0.00046691       0.00002108       0.00040980       0.00000554       0.00032503       0.00000001       0.00008946       0.00000346       0.00002207       0.00000085       0.00001945       0.00000021       0.00001547       0.00000425
Si       3.96232000       9.47420000       1.11585000      -0.29755300      -0.62998700       1.82692000       1.57985767       1.30912393       1.06663916       0.78912748       0.48251754       0.22269094       0.03301397       0.00075084       0.01360326       0.03530169       0.00683673       0.02853516       0.01058285       0.02751772       0.00531424       0.02224911       0.00686553       0.01791363       0.00344242       0.01449052       0.00374731       0.00982588       0.00187488       0.00795345       0.00070829       0.00601765       0.00000370       0.00169182       0.00157887       0.00417002       0.00078743       0.00337858       0.00029678       0.00255742       0.00000153       0.00071818       0.00028087       0.00075306       0.00013914       0.00061133       0.00005219       0.00046317       0.00000026       0.00012976       0.00001377       0.00003797       0.00000674       0.00003093       0.00000251       0.00002348       0.00000655
Si       1.30856000       9.56679000       4.04624000       1.37419000      -0.09111440       0.28758000       1.59215314       1.33281800       1.09718134       0.82297497       0.51321357       0.24323856       0.03820053       0.00096722       0.01809263       0.02707451       0.01056917       0.01955104       0.01416501       0.02104727       0.00828262       0.01516488       0.00929088       0.01363784       0.00544133       0.00978829       0.00515011       0.00743261       0.00302284       0.00530534       0.00122252       0.00370327       0.00000702       0.00113479       0.00221878       0.00312611       0.00130625       0.00221358       0.00052785       0.00153469       0.00000299       0.00047047       0.00041294       0.00055491       0.00024449       0.00038647       0.00009865       0.00026411       0.00000055       0.00008100       0.00002195       0.00002722       0.00001311       0.00001839       0.00000528       0.00001222       0.00000375
Si       4.04819000       6.95598000       4.10067000       0.03019790       0.78832700       0.69335800       1.54787960       1.28485756       1.04812813       0.77598526       0.47413590       0.21801707       0.03189756       0.00070338       0.01211007       0.02800201       0.00629792       0.02218986       0.00944779       0.02181972       0.00491220       0.01728412       0.00616008       0.01419641       0.00320153       0.01123786       0.00338723       0.00778198       0.00175950       0.00615424       0.00067614       0.00456101       0.00000353       0.00122752       0.00144336       0.00330058       0.00074926       0.00260648       0.00028677       0.00192845       0.00000146       0.00051733       0.00026327       0.00059592       0.00013654       0.00046919       0.00005186       0.00034594       0.00000025       0.00009222       0.00001358       0.00003013       0.00000704       0.00002358       0.00000264       0.00001728       0.00000456
Si       5.35080000       5.53702000       0.12934400      -0.59122600      -0.02577700      -3.23545000       1.45561965       1.21095983       0.98935311       0.73322600       0.44804388       0.20602862       0.03060873       0.00074452       0.00682992       0.01492197       0.00386291       0.01195496       0.00529567       0.01159546       0.00299469       0.00929448       0.00341613       0.00750914       0.00193121       0.00602422       0.00185030       0.00409016       0.00104549       0.00328534       0.00045953       0.00253214       0.00000429       0.00078787       0.00077146       0.00171964       0.00043554       0.00138372       0.00019168       0.00106823       0.00000180       0.00033351       0.00013461       0.00030540       0.00007584       0.00024663       0.00003346       0.00019101       0.00000032       0.00006001       0.00000641       0.00001503       0.00000360       0.00001222       0.00000159       0.00000951       0.00000302
Si       8.07039000       8.03829000      11.05040000       0.91062700      -0.19246700      -1.31493000       1.54653293       1.28317989       1.04639820       0.77443453       0.47300185       0.21735097       0.03170420       0.00069074       0.01036352       0.02689776       0.00531112       0.02184536       0.00802096       0.02088269       0.00410657       0.01696830       0.00515725       0.01349995       0.00263585       0.01097855       0.00277969       0.00733258       0.00141716       0.00597005       0.00056015       0.00455963       0.00000370       0.00133321       0.00115013       0.00306818       0.00058421       0.00250227       0.00023044       0.00191371       0.00000151       0.00056100       0.00019721       0.00053843       0.00009940       0.00044062       0.00003904       0.00033790       0.00000025       0.00009955       0.00000905       0.00002580       0.00000450       0.00002124       0.00000175       0.00001637       0.00000486
Si       5.35243000       8.24806000       2.61678000      -1.39182000       0.37966200       0.86104300       1.55979102       1.29342012       1.05435647       0.78024814       0.47692107       0.21978466       0.03246812       0.00074007       0.01332982       0.03269185       0.00696001       0.02632204       0.01037195       0.02548301       0.00541211       0.02052317       0.00673033       0.01658796       0.00350789       0.01336552       0.00367426       0.00909704       0.00191187       0.00733465       0.00074545       0.00559043       0.00000424       0.00169816       0.00154812       0.00385898       0.00080355       0.00311441       0.00031278       0.00237509       0.00000177       0.00072122       0.00027515       0.00069582       0.00014206       0.00056273       0.00005510       0.00042965       0.00000031       0.00013038       0.00001343       0.00003492       0.00000686       0.00002835       0.00000265       0.00002170       0.00000658
Si       8.24261000       5.36155000       2.66260000      -1.61796000       1.96995000      -0.48354200       1.48911390       1.23402586       1.00472849       0.74163515       0.45086742       0.20576646       0.02973581       0.00065500       0.00864659       0.02073443       0.00447295       0.01656078       0.00668115       0.01599580       0.00345802       0.01277267       0.00428373       0.01022741       0.00221918       0.00816287       0.00229992       0.00546918       0.00119301       0.00436227       0.00046458       0.00326601       0.00000301       0.00091554       0.00094645       0.00223743       0.00049187       0.00178285       0.00019174       0.00133386       0.00000124       0.00037353       0.00016059       0.00037495       0.00008379       0.00029815       0.00003273       0.00022273       0.00000021       0.00006224       0.00000725       0.00001652       0.00000381       0.00001308       0.00000149       0.00000975       0.00000271
Si       6.60026000       6.83828000       1.43521000       2.46754000      -1.42391000       0.96183300       1.57164158       1.30951300       1.07329886       0.80091813       0.49663197       0.23449412       0.03708402       0.00098276       0.01617642       0.02918543       0.00927381       0.02228283       0.01261725       0.02265116       0.00724256       0.01727647       0.00822183       0.01463455       0.00472970       0.01114242       0.00451557       0.00794208       0.00260537       0.00603188       0.00110230       0.00441950       0.00000856       0.00127984       0.00191948       0.00331907       0.00111210       0.00251168       0.00047163       0.00183631       0.00000368       0.00053199       0.00034754       0.00058095       0.00020297       0.00043638       0.00008646       0.00031760       0.00000068       0.00009209       0.00001757       0.00002770       0.00001039       0.00002052       0.00000446       0.00001481       0.00000430
Si       9.53916000       9.37885000       1.34265000      -0.77091000       3.15062000      -0.25930200       1.48448297       1.22493704       0.99315916       0.72925906       0.44053795       0.19999101       0.02904603       0.00068503       0.00753310       0.02642727       0.00340184       0.02229601       0.00584390       0.02058178       0.00263369       0.01737157       0.00377297       0.01337924       0.00169434       0.01130061       0.00204581       0.00732562       0.00091401       0.00619381       0.00035080       0.00483122       0.00000301       0.00137483       0.00085416       0.00310246       0.00037870       0.00262701       0.00014491       0.00205101       0.00000124       0.00058383       0.00014937       0.00055890       0.00006515       0.00047468       0.00002477       0.00037131       0.00000021       0.00010576       0.00000713       0.00002822       0.00000301       0.00002410       0.00000113       0.00001892       0.00000539