64
Lattice="10.862 0.0 0.0 0.0 10.862 0.0 0.0 0.0 10.862" Properties=species:S:1:pos:R:3:atomic_forces_forces:R:3:quests_descriptor_descriptors:R:63 PBC="1 1 1" energy_energy=-261.93944 quests_descriptor_num_nearest_neighbors=32 quests_descriptor_cutoff=5.0 quests_descriptor_species="_JSON [\"species-agnostic\"]" pbc="T T T"
Si      10.77670000       0.10462600      10.79190000       0.76239700      -0.54431600       0.85405300       0.26364021       0.25764141       0.25545000       0.24023627       0.06347807       0.05526932       0.05097016       0.04974997       0.04705661       0.04632632       0.04536529       0.04049187       0.03866918       0.03158284       0.02758400       0.02554872       0.01426041       0.01306007       0.01229828       0.01142677       0.01070691       0.00940057       0.00881443       0.00789120       0.00584560       0.00560041       0.00310650       0.00004460       0.00000000       0.00000000       0.00000000       0.00000000       0.08476899       0.05982119       0.05732676       0.04988170       0.04493124       0.03929001       0.03304188       0.03019567       0.02812992       0.02622189       0.02424457       0.02237925       0.02087426       0.01987638       0.01893289       0.01793027       0.01691754       0.01584011       0.01416153       0.01231155       0.01161793       0.01044766       0.00965078       0.00904506       0.00823692       0.00626841       0.00090578       0.00000000       0.00000000       0.00000000       0.00000000
Si       2.70277000       2.83598000       0.14581900      -0.72704000      -1.76650000      -0.79833100       0.28691802       0.26826869       0.25467930       0.25087100       0.07122930       0.05477788       0.04933828       0.04896497       0.04802760       0.03939480       0.03866918       0.03825139       0.03819863       0.03461824       0.03157588       0.02206812       0.02052182       0.01633018       0.00938913       0.00870192       0.00869257       0.00786548       0.00590130       0.00404266       0.00399018       0.00342165       0.00328980       0.00249751       0.00000000       0.00000000       0.00000000       0.00000000       0.08399597       0.06083270       0.05835871       0.04953097       0.04414024       0.03885391       0.03306091       0.02966245       0.02719999       0.02578370       0.02343342       0.02235957       0.02080122       0.01962693       0.01871349       0.01762495       0.01571045       0.01460591       0.01347161       0.01164199       0.01045494       0.00931926       0.00853887       0.00761303       0.00673802       0.00621521       0.00536034       0.00000000       0.00000000       0.00000000       0.00000000
Si      -0.14843600       2.72039000       2.61741000       0.51658000      -1.21464000      -0.12249600       0.27145863       0.25781663       0.25008434       0.23912709       0.05720458       0.05097016       0.05064953       0.04896497       0.04837233       0.04606767       0.04355381       0.04213779       0.04172649       0.03771028       0.03447863       0.02791840       0.01573199       0.01302052       0.01280226       0.01234125       0.00740483       0.00738132       0.00398122       0.00350318       0.00322714       0.00268494       0.00258515       0.00194139       0.00000000       0.00000000       0.00000000       0.00000000       0.08344665       0.05918808       0.05660146       0.04865379       0.04403986       0.03955889       0.03229177       0.03046467       0.02841231       0.02576230       0.02348589       0.02222819       0.02080075       0.01987960       0.01882837       0.01791301       0.01601029       0.01480002       0.01291073       0.01150976       0.01015842       0.00871622       0.00775350       0.00709102       0.00626571       0.00537748       0.00466319       0.00000000       0.00000000       0.00000000       0.00000000
Si       2.77288000      10.75920000       2.87709000       0.30542800       0.75483700      -0.99088100       0.27141633       0.25839165       0.25126260       0.24110761       0.05822926       0.05805716       0.05773663       0.05638122       0.04450782       0.04150195       0.03698175       0.03661431       0.03410606       0.03157588       0.02791840       0.02554872       0.01554330       0.01175731       0.01161683       0.01053599       0.01034702       0.01008755       0.00938192       0.00688979       0.00477400       0.00468918       0.00453566       0.00338788       0.00000000       0.00000000       0.00000000       0.00000000       0.08413629       0.06027855       0.05793188       0.04908200       0.04428162       0.03969769       0.03254746       0.03091644       0.02773783       0.02543273       0.02361178       0.02209434       0.02074694       0.01982059       0.01856537       0.01751257       0.01642835       0.01552449       0.01433815       0.01291814       0.01116494       0.01039721       0.00979099       0.00906899       0.00803438       0.00719133       0.00639308       0.00000000       0.00000000       0.00000000       0.00000000
Si       1.41892000       1.28983000       1.42459000      -0.80612400       0.35031600      -0.05456430       0.25087100       0.24110761       0.24023627       0.23912709       0.05944271       0.05495433       0.04751681       0.04592151       0.04500995       0.04375480       0.04343461       0.04175136       0.03953574       0.03597147       0.03147737       0.03000451       0.01744776       0.01318005       0.01251545       0.01045095       0.01002334       0.00916425       0.00722837       0.00658245       0.00642131       0.00628211       0.00397525       0.00103158       0.00000000       0.00000000       0.00000000       0.00000000       0.08387647       0.05876566       0.05630191       0.04883265       0.04455548       0.03995561       0.03258053       0.03030571       0.02809298       0.02583722       0.02400477       0.02268246       0.02133102       0.02010085       0.01918537       0.01827996       0.01710998       0.01564384       0.01418187       0.01275278       0.01177794       0.01056887       0.00954535       0.00888635       0.00810243       0.00678958       0.00428202       0.00000000       0.00000000       0.00000000       0.00000000
Si       4.12242000       4.09481000       1.32383000       0.53386600       2.07824000       0.10020300       0.28691802       0.26966794       0.24512778       0.22944358       0.06088879       0.05214614       0.05122878       0.04940775       0.04803356       0.04151257       0.03953574       0.03745206       0.03737762       0.03714461       0.02926317       0.02647703       0.01577337       0.01234472       0.01061874       0.01022910       0.00917016       0.00885597       0.00878859       0.00693923       0.00350318       0.00338788       0.00297963       0.00186889       0.00000000       0.00000000       0.00000000       0.00000000       0.08392249       0.06020279       0.05619089       0.04858499       0.04340379       0.03906352       0.03250834       0.02969326       0.02790800       0.02532830       0.02337234       0.02189397       0.02084567       0.01952883       0.01864161       0.01727245       0.01613786       0.01514214       0.01355221       0.01176563       0.01095451       0.01013949       0.00900265       0.00784654       0.00702989       0.00629992       0.00501739       0.00000000       0.00000000       0.00000000       0.00000000
Si       1.27934000       3.93149000       3.94479000       0.09310230       1.37053000       0.39592400       0.27145863       0.26109227       0.25467442       0.24423199       0.05944271       0.05174699       0.05171414       0.04648579       0.04620313       0.04151257       0.04150669       0.03561221       0.03322495       0.03288630       0.03138895       0.02616697       0.02052182       0.01533448       0.01290108       0.01210894       0.01034702       0.00960671       0.00875426       0.00725219       0.00681077       0.00351771       0.00282775       0.00137922       0.00000000       0.00000000       0.00000000       0.00000000       0.08448433       0.06046034       0.05718518       0.04900210       0.04386052       0.03994210       0.03200414       0.02994031       0.02778597       0.02572715       0.02379043       0.02254395       0.02139466       0.01992438       0.01889682       0.01780390       0.01672086       0.01591160       0.01464088       0.01329327       0.01170525       0.01059400       0.00996078       0.00887680       0.00763468       0.00604293       0.00480414       0.00000000       0.00000000       0.00000000       0.00000000
Si       4.02560000       1.40043000       4.17770000      -1.03492000       0.77715500       0.76329600       0.25868347       0.25839165       0.24735877       0.22240591       0.05171414       0.04906140       0.04843506       0.04751681       0.04714513       0.04256999       0.04176201       0.03996671       0.03891192       0.03884272       0.03882857       0.03745206       0.01433892       0.01207557       0.01050757       0.00869257       0.00712274       0.00680201       0.00606860       0.00541927       0.00492555       0.00401897       0.00398122       0.00224320       0.00000000       0.00000000       0.00000000       0.00000000       0.08279658       0.05836774       0.05532151       0.04800366       0.04350546       0.03976876       0.03172848       0.03036437       0.02764849       0.02504319       0.02370911       0.02238269       0.02061068       0.01977082       0.01882994       0.01813478       0.01637547       0.01473535       0.01262756       0.01136683       0.01033152       0.00949529       0.00865938       0.00781914       0.00721020       0.00627797       0.00537955       0.00000000       0.00000000       0.00000000       0.00000000
Si       5.27583000       0.17313800      10.85190000      -0.23483600      -1.24913000      -0.00815463       0.29021708       0.26881457       0.26507302       0.24848570       0.06239818       0.05477788       0.05267458       0.05185511       0.05158945       0.04676450       0.04450782       0.03910995       0.03837581       0.03657464       0.03274401       0.03098073       0.01744776       0.01577337       0.01159237       0.00852600       0.00770183       0.00697016       0.00695508       0.00680201       0.00616945       0.00506710       0.00282409       0.00058459       0.00000000       0.00000000       0.00000000       0.00000000       0.08705405       0.06215517       0.05929698       0.04998856       0.04564953       0.04143300       0.03376467       0.03131415       0.02861250       0.02625477       0.02486679       0.02325710       0.02200980       0.02101940       0.01971555       0.01818397       0.01677366       0.01546511       0.01388239       0.01254229       0.01116218       0.01011657       0.00896438       0.00823253       0.00759176       0.00620426       0.00336202       0.00000000       0.00000000       0.00000000       0.00000000
Si       8.08484000       2.73526000      10.90620000       0.75256100      -0.21793400       0.14416700       0.29220694       0.27212228       0.26855676       0.26369440       0.06230718       0.05720458       0.05451807       0.04974997       0.04676450       0.04512228       0.04234812       0.03988689       0.03964443       0.03886828       0.03735131       0.03662017       0.01516089       0.01451429       0.01406594       0.01234472       0.01017998       0.00864102       0.00699934       0.00645550       0.00447736       0.00433647       0.00397525       0.00224347       0.00000000       0.00000000       0.00000000       0.00000000       0.08961644       0.06360169       0.06058762       0.05251742       0.04638166       0.04223834       0.03431800       0.03218138       0.02986209       0.02713210       0.02524789       0.02396496       0.02230886       0.02126011       0.02018989       0.01952469       0.01831583       0.01631467       0.01430549       0.01294502       0.01174652       0.01086111       0.00992282       0.00905867       0.00773661       0.00679878       0.00543153       0.00000000       0.00000000       0.00000000       0.00000000
Si       5.36001000       2.85854000       2.82083000       1.24228000      -1.28825000       0.39923300       0.26966794       0.24735877       0.23363384       0.23327879       0.05869498       0.05271912       0.04933828       0.04378801       0.03988689       0.03910995       0.03870227       0.03819401       0.03698175       0.03245020       0.03210690       0.03089220       0.02187781       0.01290108       0.00989260       0.00965306       0.00916425       0.00905668       0.00857686       0.00663152       0.00649270       0.00570821       0.00406670       0.00386745       0.00000000       0.00000000       0.00000000       0.00000000       0.08354925       0.05909216       0.05588333       0.04764921       0.04398082       0.03916544       0.03140111       0.02947364       0.02730584       0.02533423       0.02348526       0.02191675       0.02106059       0.01968062       0.01845392       0.01765217       0.01660956       0.01568257       0.01435568       0.01282812       0.01139632       0.01056949       0.00956744       0.00889522       0.00828801       0.00746432       0.00663019       0.00000000       0.00000000       0.00000000       0.00000000
Si       8.07087000      -0.09064320       2.44669000       0.21543500       1.74603000       1.08126000       0.26905141       0.26774587       0.23901310       0.23351986       0.06441397       0.06259192       0.05526932       0.05451807       0.05267458       0.04213779       0.03842990       0.03419647       0.03200625       0.03124627       0.03089220       0.02394498       0.02211943       0.01896030       0.01549861       0.01545231       0.00658245       0.00423056       0.00401897       0.00361879       0.00315953       0.00273470       0.00240349       0.00210917       0.00000000       0.00000000       0.00000000       0.00000000       0.08329615       0.05945557       0.05681171       0.05026720       0.04461478       0.03806290       0.03258045       0.03067129       0.02845139       0.02567034       0.02380430       0.02253640       0.02116173       0.01997208       0.01855487       0.01760298       0.01658145       0.01507259       0.01315094       0.01152063       0.00979275       0.00855314       0.00767143       0.00665236       0.00606694       0.00541448       0.00478183       0.00000000       0.00000000       0.00000000       0.00000000
Si       6.60377000       1.43577000       1.24414000       1.01053000       0.70801000       2.26921000       0.29021708       0.26855676       0.23901310       0.23327879       0.06573507       0.06169061       0.06088879       0.05632708       0.04981113       0.04670041       0.04088609       0.03891192       0.03557549       0.03510649       0.02935836       0.02728406       0.01633018       0.01534390       0.01299656       0.01008755       0.00740483       0.00734154       0.00715427       0.00667684       0.00630556       0.00584560       0.00379816       0.00145693       0.00000000       0.00000000       0.00000000       0.00000000       0.08676767       0.06180022       0.05864525       0.05066712       0.04602301       0.04121436       0.03440789       0.03156469       0.02906196       0.02646786       0.02475714       0.02308714       0.02197797       0.02059984       0.01983740       0.01821759       0.01689494       0.01545007       0.01395420       0.01254851       0.01136145       0.01058164       0.00940842       0.00864865       0.00802224       0.00693763       0.00490538       0.00000000       0.00000000       0.00000000       0.00000000
Si       9.45764000       4.17078000       1.25684000      -0.74135700       0.06446940       1.44225000       0.26369440       0.26344381       0.25781663       0.23967388       0.07247377       0.06075244       0.05976966       0.05020963       0.04648579       0.04567466       0.04024993       0.03557549       0.03254216       0.03172721       0.03150774       0.03000451       0.01848789       0.01527335       0.01486344       0.01423195       0.00938913       0.00881443       0.00796560       0.00751239       0.00570821       0.00504776       0.00423056       0.00406691       0.00000000       0.00000000       0.00000000       0.00000000       0.08787580       0.06210964       0.05922238       0.05155945       0.04648557       0.04090223       0.03497748       0.03132292       0.02859500       0.02688184       0.02521888       0.02323512       0.02231065       0.02121416       0.02003331       0.01866832       0.01763907       0.01618759       0.01479009       0.01352744       0.01255704       0.01147886       0.01031636       0.00930730       0.00839888       0.00741766       0.00682720       0.00000000       0.00000000       0.00000000       0.00000000
Si       6.90314000       4.03857000       4.32926000      -1.22036000      -0.18580300      -2.31724000       0.27472677       0.27271336       0.25634397       0.23363384       0.06558226       0.06443862       0.05389129       0.04727594       0.04710668       0.04690685       0.03882857       0.03763641       0.03358606       0.03254216       0.02935836       0.02826026       0.02647703       0.01508940       0.01237099       0.01234125       0.01073172       0.00641319       0.00581656       0.00433647       0.00315953       0.00169562       0.00090899       0.00013980       0.00000000       0.00000000       0.00000000       0.00000000       0.08473244       0.05958180       0.05769222       0.04936663       0.04435238       0.03930812       0.03279772       0.03042384       0.02801065       0.02587733       0.02392021       0.02235624       0.02104812       0.01998240       0.01878126       0.01738403       0.01630519       0.01552116       0.01381808       0.01196868       0.01041137       0.00895068       0.00761293       0.00670947       0.00513777       0.00357162       0.00157908       0.00000000       0.00000000       0.00000000       0.00000000
Si       9.44727000       1.23865000       3.99271000       0.30909900      -0.09393970      -0.87389100       0.26788067       0.25016203       0.25008434       0.23351986       0.06459654       0.05121106       0.04710668       0.04620313       0.04500995       0.04467204       0.04426302       0.03812556       0.03510649       0.03242361       0.03172721       0.03148109       0.01275652       0.01147479       0.01070691       0.01017998       0.00856706       0.00688979       0.00649270       0.00638050       0.00631830       0.00615001       0.00331882       0.00125084       0.00000000       0.00000000       0.00000000       0.00000000       0.08400691       0.05899408       0.05545601       0.04834747       0.04406164       0.03845231       0.03153680       0.02931808       0.02799935       0.02476380       0.02339259       0.02185015       0.02054684       0.01938242       0.01849614       0.01732653       0.01609084       0.01477353       0.01293874       0.01187090       0.01094387       0.00971016       0.00901057       0.00831870       0.00765552       0.00642583       0.00443209       0.00000000       0.00000000       0.00000000       0.00000000
Si      10.75360000       5.63025000      -0.01245850      -0.46727300      -0.16403100      -1.87582000       0.27348700       0.26344381       0.24946250       0.22698251       0.06765047       0.05829847       0.05021675       0.04871438       0.04306105       0.04054809       0.03903935       0.03771028       0.03726720       0.03662017       0.03461824       0.02960184       0.02519782       0.02069889       0.01635047       0.01353942       0.01247518       0.00920069       0.00832832       0.00725219       0.00548031       0.00361911       0.00297963       0.00103158       0.00000000       0.00000000       0.00000000       0.00000000       0.08698117       0.06173305       0.05794191       0.05043343       0.04615797       0.04108463       0.03409606       0.03128895       0.02923948       0.02683761       0.02503905       0.02364058       0.02247145       0.02125838       0.02007495       0.01904704       0.01775343       0.01693186       0.01592545       0.01428184       0.01286659       0.01114323       0.00988040       0.00872395       0.00741322       0.00654075       0.00433557       0.00000000       0.00000000       0.00000000       0.00000000
Si       2.95422000       8.26278000       0.18953300      -0.96767500       0.03968670      -1.72261000       0.26116659       0.25645699       0.24222206       0.21367618       0.06239818       0.05871042       0.05773663       0.05565000       0.05289941       0.04690026       0.04079509       0.03766805       0.03671039       0.02960184       0.02758400       0.02724714       0.01557423       0.01499792       0.01404157       0.01318005       0.01148722       0.00885597       0.00707134       0.00583948       0.00532497       0.00334326       0.00064441       0.00010198       0.00000000       0.00000000       0.00000000       0.00000000       0.08463549       0.05852568       0.05594197       0.04829928       0.04443660       0.03996789       0.03264332       0.03063728       0.02825251       0.02631387       0.02345992       0.02231864       0.02128732       0.02028515       0.01880850       0.01757943       0.01655844       0.01514168       0.01393604       0.01266988       0.01149282       0.01020514       0.00891908       0.00788953       0.00630917       0.00341728       0.00137129       0.00000000       0.00000000       0.00000000       0.00000000
Si       0.05896400       8.00999000       2.63874000      -2.30114000       1.99212000       2.04735000       0.30874444       0.24779219       0.23631196       0.23139048       0.06765047       0.06744616       0.05006130       0.04690026       0.04269007       0.04150195       0.04088393       0.03745071       0.03419647       0.03347714       0.03158284       0.03139816       0.01707816       0.01423195       0.01274063       0.01139904       0.00960671       0.00867548       0.00722837       0.00638050       0.00630948       0.00578451       0.00412484       0.00338430       0.00000000       0.00000000       0.00000000       0.00000000       0.08674427       0.06102585       0.05716836       0.04958600       0.04554753       0.04102842       0.03386241       0.03054399       0.02840969       0.02569992       0.02426434       0.02293558       0.02123463       0.02014787       0.01916849       0.01847249       0.01750004       0.01574915       0.01438987       0.01318491       0.01174960       0.01088497       0.00979949       0.00923283       0.00845046       0.00734615       0.00614030       0.00000000       0.00000000       0.00000000       0.00000000
Si       2.52618000       5.43396000       2.52967000       1.70903000       0.23435600       1.09295000       0.24984328       0.24512778       0.24423199       0.21212144       0.07122930       0.06744616       0.05829847       0.05565000       0.04666095       0.04606767       0.04495999       0.04378801       0.02919899       0.02630599       0.02603833       0.02455256       0.02397113       0.01486344       0.01429309       0.01247042       0.01218234       0.01045095       0.00612368       0.00574123       0.00492555       0.00399937       0.00089775       0.00013980       0.00000000       0.00000000       0.00000000       0.00000000       0.08485426       0.05834677       0.05648817       0.04925401       0.04503920       0.03918785       0.03348669       0.03131163       0.02849138       0.02661119       0.02503660       0.02255226       0.02091551       0.02016028       0.01930057       0.01823706       0.01651050       0.01524886       0.01414927       0.01258903       0.01170384       0.01041790       0.00910168       0.00788524       0.00678204       0.00387593       0.00159488       0.00000000       0.00000000       0.00000000       0.00000000
Si       1.28312000       6.97890000       1.20170000       2.02135000      -1.90483000      -0.07233090       0.30874444       0.27348700       0.26116659       0.24984328       0.07074502       0.06442174       0.05234257       0.05107897       0.04348138       0.04024993       0.03674522       0.03561668       0.03160019       0.02926317       0.02861561       0.02616697       0.01600859       0.01334330       0.01175731       0.01142677       0.00888911       0.00835941       0.00786548       0.00390438       0.00268494       0.00219858       0.00210079       0.00100463       0.00000000       0.00000000       0.00000000       0.00000000       0.08430202       0.06121350       0.05770674       0.04835680       0.04366206       0.03850060       0.03232585       0.02971625       0.02720600       0.02486469       0.02317661       0.02188861       0.02031443       0.01922043       0.01773143       0.01666544       0.01596066       0.01458610       0.01308937       0.01167849       0.01024024       0.00925193       0.00816382       0.00698466       0.00595052       0.00493450       0.00375107       0.00000000       0.00000000       0.00000000       0.00000000
Si       4.35882000       9.52405000       1.60227000      -2.07169000       1.39001000      -1.75970000       0.29427033       0.25645699       0.25126260       0.24848570       0.07648365       0.06573507       0.05318060       0.04958408       0.04906140       0.04172274       0.04055052       0.03597147       0.03563424       0.03200625       0.03160019       0.02804686       0.01885245       0.01818540       0.01628100       0.01420585       0.00857686       0.00574123       0.00421183       0.00394917       0.00338430       0.00249751       0.00235767       0.00004460       0.00000000       0.00000000       0.00000000       0.00000000       0.08559241       0.06093348       0.05792519       0.05003988       0.04550634       0.03952723       0.03358856       0.03075820       0.02862574       0.02631167       0.02417383       0.02256041       0.02122209       0.02001622       0.01913565       0.01771024       0.01688356       0.01554861       0.01379549       0.01209606       0.01011389       0.00906602       0.00780482       0.00669283       0.00589520       0.00509089       0.00089850       0.00000000       0.00000000       0.00000000       0.00000000
Si       1.39612000       9.37479000       4.08373000      -1.17786000       0.67906400      -0.47137900       0.28263503       0.27141633       0.24779219       0.24380875       0.06281175       0.05107897       0.05097935       0.04945419       0.04343461       0.04318671       0.04172274       0.04095404       0.04066482       0.03884272       0.03812556       0.03578262       0.01404157       0.01249628       0.01218234       0.01142601       0.00916622       0.00885507       0.00768308       0.00375766       0.00342358       0.00310650       0.00273470       0.00258515       0.00000000       0.00000000       0.00000000       0.00000000       0.08606818       0.06104268       0.05829717       0.04958369       0.04463987       0.04044755       0.03288188       0.03124871       0.02882097       0.02607540       0.02438252       0.02318821       0.02127298       0.01997909       0.01909717       0.01834104       0.01732994       0.01541116       0.01372744       0.01178818       0.01082518       0.00986583       0.00879577       0.00773706       0.00664360       0.00595065       0.00521953       0.00000000       0.00000000       0.00000000       0.00000000
Si       4.19763000       6.68891000       4.01254000      -1.26478000       0.27093500      -1.43413000       0.26766089       0.24967749       0.23982063       0.21212144       0.05318060       0.05214614       0.05124813       0.04690685       0.04547967       0.04533971       0.04174926       0.04066482       0.03611116       0.03524016       0.03138895       0.02861561       0.02187781       0.01819581       0.01499792       0.01052871       0.00938192       0.00650580       0.00638823       0.00630948       0.00588601       0.00566599       0.00551422       0.00382614       0.00000000       0.00000000       0.00000000       0.00000000       0.08433083       0.05943640       0.05612398       0.04878711       0.04432760       0.04046823       0.03258260       0.03056624       0.02800533       0.02566313       0.02405681       0.02282553       0.02162187       0.02069214       0.01969631       0.01840731       0.01713422       0.01601694       0.01456344       0.01319921       0.01202077       0.01088223       0.00987920       0.00881700       0.00804435       0.00761060       0.00654397       0.00000000       0.00000000       0.00000000       0.00000000
Si       5.64324000       5.40564000      -0.13022500      -0.29474000      -0.25232000       2.40639000       0.27282725       0.26942410       0.23499755       0.22944358       0.06230718       0.05847250       0.05612069       0.05317313       0.05087768       0.04548489       0.04266771       0.04188522       0.03870227       0.03825139       0.03671039       0.02630599       0.01848789       0.01534390       0.01486415       0.01421235       0.00908959       0.00721638       0.00588601       0.00400104       0.00398565       0.00394917       0.00100463       0.00090899       0.00000000       0.00000000       0.00000000       0.00000000       0.08570738       0.06016017       0.05778417       0.04961208       0.04549701       0.04127713       0.03371858       0.03176315       0.02953478       0.02671633       0.02440412       0.02315248       0.02162819       0.02047616       0.01975118       0.01895081       0.01722406       0.01550521       0.01373981       0.01239936       0.01103687       0.00953228       0.00839985       0.00744031       0.00660704       0.00472165       0.00332714       0.00000000       0.00000000       0.00000000       0.00000000