64
Lattice="10.862 0.0 0.0 0.0 10.862 0.0 0.0 0.0 10.862" Properties=species:S:1:pos:R:3:atomic_forces_forces:R:3 energy_energy=-270.70852771387734 cauchy_stress_stress="-0.002060753397503338 -0.002414484733951735 -0.0023451527920251582 -0.010083194259779871 0.00913473898840735 -0.005863477526667887" pbc="T T T"
Si      11.00860000      -0.18318200      10.95320000      -0.46098605       1.64626609      -0.65959318
Si       2.75251000       2.69713000      -0.04369190      -0.80561778       0.96474833       0.54824179
Si      -0.03540900       2.90940000       2.55964000       0.23248949      -1.52494635       0.91820920
Si       2.75523000      10.90980000       2.80034000      -1.92773504       0.54982914      -0.83948496
Si       1.35504000       1.40639000       1.34641000       0.51177977      -0.42555960       0.44293207
Si       4.11021000       3.99425000       1.45168000       0.35880153       0.93486391      -1.46970974
Si       1.32444000       4.16837000       3.97543000      -0.08331419      -0.52126489      -0.65176114
Si       3.88953000       1.35734000       4.19899000       2.13573971       0.45347454       0.85942249
Si       5.38381000       0.06838430      10.93820000       0.20622041      -0.50460598       1.14910170
Si       8.17948000       2.66672000      10.84190000      -0.53020752       1.01654662      -0.42957435
Si       5.37067000       2.68529000       2.89864000      -0.80940267       0.85796455       0.29296912
Si       7.99640000       0.06049160       2.78319000       0.39305021       1.44595809      -1.33761718
Si       6.65027000       1.64549000       1.37730000       1.02612753      -3.33806772       0.09323314
Si       9.39034000       4.13680000       1.27785000      -0.08898393       0.79752889      -0.16044436
Si       6.78850000       4.08667000       4.09481000       0.71151907      -0.99831485       0.35350957
Si       9.54605000       1.45297000       4.01673000      -0.49872570      -0.26361181      -0.09411418
Si      10.63340000       5.54645000      -0.12831600       1.54879864      -0.39282232      -0.21278893
Si       2.92452000       8.13570000       0.06217200      -1.72054724       0.57985607      -0.26966936
Si       0.01471430       8.12860000       2.74983000      -1.21900464       1.04253351       0.17472305
Si       2.71915000       5.44838000       2.63142000      -1.08246921       0.50434006      -0.90451771
Si       1.24512000       6.89692000       1.21161000       1.09598051      -1.27314320       0.53876224
Si       4.04158000       9.56108000       1.55545000       1.76789783      -0.91840579      -1.28376952
Si       1.45612000       9.52993000       4.08831000      -0.88255107      -0.80129970       0.06181198
Si       4.10490000       6.68607000       3.97026000      -0.77231232      -1.22638812       1.81437242
Si       5.55331000       5.49933000       0.04094180       0.10753347      -2.30744892       0.65179212
Si       8.23813000       8.12656000      10.70160000      -1.15101848       1.68993822       1.29170148
Si       5.37023000       7.98130000       2.79049000       1.33489911       2.26564924      -2.26113925
Si       8.07152000       5.48892000       2.68478000       0.79273272      -0.78745965       0.76126455
Si       6.90315000       6.88493000       1.34555000      -0.96927209       0.06532454      -0.42534942
Si       9.39963000       9.62921000       1.37771000       0.62141757      -2.12754829       0.39280877
Si       6.68265000       9.45394000       3.98776000       1.71778928      -0.85624959       2.26587434
Si       9.45471000       6.71489000       4.15474000       0.48618253       0.83911651      -1.58642070
Si      10.90510000      10.93390000       5.38432000      -0.52552936      -0.57287205       0.45581256
Si       2.52117000       2.83123000       5.42443000       1.10593664      -0.42749730       1.23444565
Si       0.05806350       2.57699000       8.32115000      -0.66966465       1.55537521      -1.58499102
Si       2.72671000       0.04406590       8.15366000      -0.50143309       0.33986063      -0.08904031
Si       1.29035000       1.39592000       6.87107000       1.00467933      -0.56690870      -0.99806678
Si       4.04968000       4.08105000       6.87056000      -0.85776384      -0.34176988      -0.65852374
Si       1.29288000       4.10888000       9.45046000       0.60631867       0.43027574       1.99887607
Si       4.04895000       1.29027000       9.55524000       0.29628888       0.91649123      -0.72548646
Si       5.50078000      10.82680000       5.44775000      -3.15482026      -0.70695975      -0.99757849
Si       8.14007000       2.63068000       5.53000000      -0.34598968       0.45247256      -0.94530895
Si       5.37005000       2.68379000       8.16182000      -0.30348814      -0.55760953       0.12318021
Si       8.06158000       0.06207040       8.29689000       0.99784344      -0.48740106      -1.43955454
Si       6.62542000       1.27917000       6.78232000       2.51503514       1.29763800       1.56349736
Si       9.63021000       3.91835000       6.80076000       0.72304590      -1.63845470      -0.58478950
Si       6.79147000       4.01576000       9.41845000       0.94957519       0.57879777       0.53980713
Si       9.64342000       1.30227000       9.63233000      -1.17171640      -1.52354244       0.54986927
Si      10.77550000       5.29372000       5.32823000       1.32618523       1.16383677       1.40286255
Si       2.83141000       8.04738000       5.33514000       0.13190629       1.62080040      -0.02428002
Si      11.06520000       8.19536000       7.96393000      -0.53589412      -0.75245306       0.57841419
Si       2.80881000       5.47677000       8.30809000      -1.28052349      -0.28477747      -2.28257014
Si       1.49989000       6.72289000       6.57147000      -1.14017727      -1.18448081       1.83745829
Si       3.98732000       9.56507000       6.82377000       1.68145741      -1.60036708      -0.69542084
Si       1.52314000       9.47582000       9.47149000      -0.18194910      -0.90987914       0.60942977
Si       4.18167000       6.71737000       9.60980000      -0.06355564       1.15770850      -0.10674335
Si       5.38427000       5.31073000       5.40193000       0.15456893       1.34017107       0.35085650
Si       8.28513000       8.12936000       5.54741000      -2.34970488       0.59586048      -2.28437770
Si       5.39908000       8.12538000       8.23622000       0.27900384      -0.05403478      -1.93916663
Si       8.30747000       5.21096000       7.94442000      -2.86621540       2.48788983       1.51071073
Si       6.81523000       6.75264000       6.67385000      -0.49332647      -0.65300555       1.81254889
Si       9.52411000       9.52390000       6.80601000       0.50104654       1.89398583       0.73861930
Si       6.68071000       9.53750000       9.55098000       0.80611938      -0.25616268       0.56771108
Si       9.44365000       6.87850000       9.22167000       1.31592952      -0.69978962      -0.54297712
