64
Lattice="10.862 0.0 0.0 0.0 10.862 0.0 0.0 0.0 10.862" Properties=species:S:1:pos:R:3:atomic_forces_forces:R:3:ltau_forces_uq_score:R:1 co-id=CO_1289586741171080181 energy_energy=-262.6728 energy_per_atom=F ltau_forces_uq_bins="_JSON [9.826158705261703e-06, 1.1027062170109953e-05, 1.2374733988202081e-05, 1.388711144604322e-05, 1.558432403465697e-05, 1.7488961369744564e-05, 1.9626373855691547e-05, 2.2025010095210678e-05, 2.4716795535485803e-05, 2.7737557390534585e-05, 3.1127501495435235e-05, 3.4931747439266745e-05, 3.92009290992939e-05, 4.399186856940476e-05, 4.9368332452677637e-05, 5.5401880584202616e-05, 6.217281848051923e-05, 6.977126619261002e-05, 7.82983577887071e-05, 8.786758743182653e-05, 9.860631996809534e-05, 0.00011065748613155361, 0.00012418148492831835, 0.00013935831852052977, 0.0001563899880250244, 0.00017550318211441527, 0.00019695229420541328, 0.00022102280839265498, 0.00024803509919425754, 0.0002783486956830725, 0.0003123670667585158, 0.00035054299125013993, 0.0003933845843281282, 0.00044146206043123326, 0.0004954153227255848, 0.0005559624801088134, 0.000623909405119375, 0.000700160459965258, 0.0007857305334337209, 0.0008817585488913106, 0.000989522623163398, 0.0011104570780553508, 0.001246171530935888, 0.0013984723184750493, 0.0015693865386831691, 0.0017611890312463712, 0.0019764326552623285, 0.0022179822673679007, 0.0024890528525018216, 0.0027932523148165534, 0.0031346294982791336, 0.003517728076107228, 0.003947647026299737, 0.004430108498181178, 0.0049715339732521865, 0.005579129734034302, 0.00626098277848512, 0.007026168456588584, 0.007884871261745434, 0.008848520384677058, 0.009929941834042498, 0.0111435291484686, 0.012505434972141823, 0.014033786043800957, 0.015748924460598036, 0.017673678428009317, 0.019833666099432202, 0.022257636549522425, 0.024977852419569537, 0.028030519327856575, 0.03145626776038425, 0.03530069385584423, 0.03961496628259934, 0.044456507285101664, 0.04988975696436252, 0.055987030964919623, 0.06282948298397104, 0.07050818491351256, 0.07912533899198845, 0.08879563809899231, 0.09964779229831235, 0.11182624194735377, 0.12549308017413968, 0.1408302103097339, 0.15804176699115657, 0.1773568331592601, 0.19903248911436056, 0.22335723421203718, 0.250654826741305, 0.2812885930932962, 0.31566626357475674, 0.3542453992302428, 0.3975394819030924, 0.44612474859288853, 0.5006478610735438, 0.5618345128533615, 0.6304990880342648, 0.7075555006279824, 0.794029358598705, 0.8910716145335489, 0.9999738846290095]" ltau_forces_uq_num_nearest_neighbors=1 ltau_forces_uq_index_type=IndexFlatL2 ltau_forces_uq_index_args=None pbc="T T T"
Si      10.85710000       0.04135860      10.75050000       0.18517200      -1.42186000       1.36386000       0.46839937
Si       2.68827000       2.54804000      -0.10146700       0.71828600       1.30935000       0.60228800       0.47380682
Si       0.12234500       2.68721000       2.83351000      -0.82789200       0.53277000      -0.67570700       0.50193643
Si       2.66113000      10.77600000       2.56459000       1.31216000       0.25596200       1.23595000       0.49430951
Si       1.32418000       1.28421000       1.38388000      -0.12625700       0.80456100      -1.08841000       0.51545514
Si       4.08030000       4.11655000       1.31129000      -1.24774000      -1.80469000       1.73467000       0.46904329
Si       1.33915000       4.11715000       4.25500000       1.05393000      -0.88973200      -0.04239670       0.43697872
Si       4.19928000       1.24519000       3.93564000      -1.11945000       0.84177700      -1.81312000       0.50247977
Si       5.44875000      -0.12606900      10.88730000       1.38871000      -0.10621300      -1.21953000       0.53842677
Si       8.19065000       2.63131000      10.87030000      -1.21394000       0.87575600      -0.32057000       0.49711227
Si       5.64753000       2.64317000       2.58819000      -1.57371000      -0.08298130      -0.56630600       0.49517938
Si       8.22598000       0.03288050       2.83549000       0.48088500      -2.13679000       0.45088500       0.51039113
Si       6.98708000       1.11241000       1.28074000      -1.36285000       1.68749000       0.32952100       0.48538853
Si       9.45202000       3.91512000       1.40095000       2.40284000       0.24844400       0.11650200       0.49540569
Si       6.76234000       4.18109000       3.93649000       0.19940900      -0.35631300       1.46487000       0.48991120
Si       9.63793000       1.41494000       4.21485000      -1.27325000      -0.24160500      -0.01211240       0.45546149
Si      10.98460000       5.28453000       0.10728600       0.36378200      -0.38895400       0.73092900       0.44791915
Si       2.48972000       8.16498000      -0.10538400       1.27988000      -1.04097000       1.48504000       0.54850484
Si      -0.04986100       8.31916000       2.80243000       1.89021000      -2.74247000      -1.42931000       0.53086227
Si       2.76031000       5.46190000       3.01631000       0.70631900      -1.43743000      -2.14674000       0.48534481
Si       1.50743000       6.72692000       1.57750000      -2.56675000       1.17412000      -1.09218000       0.47380682
Si       3.96232000       9.47420000       1.11585000      -0.29755300      -0.62998700       1.82692000       0.46823018
Si       1.30856000       9.56679000       4.04624000       1.37419000      -0.09111440       0.28758000       0.48232805
Si       4.04819000       6.95598000       4.10067000       0.03019790       0.78832700       0.69335800       0.54006763
Si       5.35080000       5.53702000       0.12934400      -0.59122600      -0.02577700      -3.23545000       0.50228871
Si       8.07039000       8.03829000      11.05040000       0.91062700      -0.19246700      -1.31493000       0.50173408
Si       5.35243000       8.24806000       2.61678000      -1.39182000       0.37966200       0.86104300       0.55468560
Si       8.24261000       5.36155000       2.66260000      -1.61796000       1.96995000      -0.48354200       0.52069698
Si       6.60026000       6.83828000       1.43521000       2.46754000      -1.42391000       0.96183300       0.55989226
Si       9.53916000       9.37885000       1.34265000      -0.77091000       3.15062000      -0.25930200       0.47360722
Si       6.63504000       9.44955000       4.15234000       2.44523000       0.13834100      -2.47886000       0.50088908
Si       9.49427000       6.89403000       3.92599000       0.03113530      -1.45890000       2.20782000       0.48113156
Si      10.90240000      10.72530000       5.47789000      -0.38461100       2.20005000       0.53411000       0.50956342
Si       2.87758000       2.55774000       5.34772000      -0.92617200       1.42679000       0.40011800       0.45961131
Si      -0.17022800       2.71519000       7.91272000       1.09572000       0.89724200       1.26395000       0.49640405
Si       2.73269000       0.17728200       8.09607000      -0.49903900      -1.87620000       0.34151400       0.55989226
Si       1.32291000       1.40356000       6.73842000       0.47127900      -0.45321700      -0.86686100       0.50061625
Si       4.22072000       4.02560000       6.68417000      -0.83044500      -0.10981900       0.81889100       0.44999182
Si       1.33589000       3.97009000       9.33851000      -0.42457700      -0.36123000       0.65075400       0.47380682
Si       4.19306000       1.19757000       9.50417000      -0.57874600       1.40960000       0.32911200       0.50251127
Si       5.43294000      10.86180000       5.28689000      -0.12340000       0.20359600       3.31187000       0.44996884
Si       8.12954000       2.91004000       5.43885000      -0.34229600      -1.38022000      -1.30153000       0.44999182
Si       5.51148000       2.56117000       8.18315000       0.40568700       1.77808000      -0.53887100       0.48591059
Si       8.28538000       0.04696280       8.17378000      -2.14392000       0.16959800       1.14981000       0.54850484
Si       6.88182000       1.31607000       6.71773000      -0.18137300       0.15975800       0.02044880       0.56197315
Si       9.48174000       4.25618000       6.64370000      -1.11025000      -0.08454080       2.70735000       0.46018595
Si       6.78756000       4.14204000       9.56978000      -0.16331700      -0.60210400       0.26859500       0.51171671
Si       9.55868000       1.45858000       9.53177000      -0.07270730      -0.52291900      -1.47404000       0.54433789
Si      10.86290000       5.54940000       5.51213000      -0.01796910       1.51025000      -1.84008000       0.46289842
Si       2.64040000       8.29698000       5.48980000      -0.18569100      -0.87916400       0.28505800       0.50067330
Si      10.64160000       8.06868000       8.25741000       1.13920000       1.41625000       0.72653800       0.50040157
Si       2.62750000       5.38791000       8.00593000       1.29985000      -0.17923000       0.58902200       0.48815029
Si       1.23434000       6.90926000       6.95489000       0.90276400      -0.16432400      -1.93606000       0.46338171
Si       4.05654000       9.60677000       6.82166000      -0.04464880       0.61224200      -1.34288000       0.47943257
Si       1.38647000       9.52711000       9.40294000      -2.06774000       1.00495000      -1.07632000       0.54414536
Si       3.85850000       6.87644000       9.45727000       1.38209000      -1.73873000      -0.06514670       0.46678462
Si       5.41721000       5.59661000       5.36802000       0.52826900      -1.31022000      -0.10660100       0.48219316
Si       8.09138000       8.12227000       5.37197000       0.56999500       0.73260500       1.37375000       0.47857430
Si       5.30855000       8.13242000       8.05302000       0.94905500       0.61748100       1.94083000       0.50465098
Si       8.23084000       5.56695000       8.30365000      -1.06752000      -1.38362000      -1.66488000       0.52089863
Si       6.75010000       6.81964000       6.82292000       0.93249800      -0.17938800      -0.00870993       0.47524129
Si       9.48128000       9.57775000       6.87841000      -0.18620000      -2.52025000      -1.59374000       0.54433789
Si       6.88491000       9.37829000       9.54641000      -0.88033100       0.59107600      -1.19660000       0.48893738
Si       9.56998000       6.65672000       9.77522000      -0.70466400       1.33066000       0.12598800       0.52089138
