64
Lattice="10.86199986 0.0 0.0 0.0 10.86199986 0.0 0.0 0.0 10.86199986" Properties=species:S:1:pos:R:3:atomic_forces_forces:R:3 co-id=CO_1072195095893777116 energy_energy=-9931.308218242082 energy_per_atom=F cauchy_stress_stress="_JSON [-0.017759922750802994, -0.018934246340643092, -0.0182548097053955, -0.00597720607494843, 0.005555771729571882, -0.002782935731669538]" cauchy_stress_volume_normalized=F pbc="T T T"
Si      11.00859993      -0.18318220      10.95319938      -0.41938061       0.98905222      -0.35886609
Si       2.75251006       2.69713015      -0.04369239      -0.56231672       0.82397660       0.44734058
Si      -0.03540903       2.90939970       2.55964004       0.18949853      -1.25255250       0.60499163
Si       2.75522990      10.90980026       2.80033979      -1.55956690       0.46859641      -0.62940605
Si       1.35503991       1.40639002       1.34641005       0.29248535      -0.26144417       0.16722841
Si       4.11021007       3.99424954       1.45168021       0.13309316       0.68588728      -0.94833315
Si       1.32443949       4.16836957       3.97543004       0.11161827      -0.37068340      -0.57714555
Si       3.88953008       1.35734049       4.19898954       1.74852730       0.37645990       0.82231438
Si       5.38380997       0.06838389      10.93820005       0.29432575      -0.48271922       0.92347264
Si       8.17948019       2.66671981      10.84189973      -0.42304134       0.61712132      -0.28394723
Si       5.37067021       2.68528948       2.89863980      -0.69176893       0.56938905       0.30037838
Si       7.99640009       0.06049156       2.78318978       0.33432620       0.97922906      -1.09639141
Si       6.65027028       1.64548979       1.37730050       0.79517407      -2.37656655      -0.10648687
Si       9.39034008       4.13680025       1.27785020      -0.06130178       0.72409156      -0.06367440
Si       6.78850009       4.08666995       4.09480993       0.61018886      -0.69403022       0.23631986
Si       9.54605011       1.45296953       4.01672953      -0.40443118      -0.29208323      -0.06815429
Si      10.63340038       5.54644995      -0.12831606       1.12314451      -0.23333455      -0.11889707
Si       2.92451960       8.13569981       0.06217191      -1.36295516       0.53056848      -0.13663562
Si       0.01471475       8.12860041       2.74983040      -0.86123008       0.74674735       0.19595586
Si       2.71914960       5.44838022       2.63142048      -0.93043750       0.37029671      -0.86409892
Si       1.24511973       6.89692022       1.21161046       0.71806900      -0.76570589       0.29134713
Si       4.04157961       9.56107986       1.55545033       1.26247644      -0.73489302      -0.99754663
Si       1.45611951       9.52992982       4.08831011      -0.75449511      -0.70192993       0.11853017
Si       4.10489964       6.68607034       3.97025972      -0.76786330      -1.19240514       1.47865968
Si       5.55331039       5.49932951       0.04094214       0.26357587      -1.90208823       0.56978911
Si       8.23812955       8.12655944      10.70159962      -0.73879621       1.39481807       0.93779985
Si       5.37023030       7.98129974       2.79049013       1.32325501       1.96124700      -1.83120009
Si       8.07151951       5.48892046       2.68478006       0.48902536      -0.57149401       0.72832899
Si       6.90314958       6.88492966       1.34554978      -0.65685387       0.24896095      -0.58715589
Si       9.39963035       9.62920958       1.37770999       0.45007598      -1.54812163       0.27329104
Si       6.68264990       9.45394035       3.98775949       1.22906650      -0.51687170       1.43341110
Si       9.45470938       6.71488940       4.15473993       0.30802613       0.64771462      -1.10026040
Si      10.90510028      10.93389978       5.38431940      -0.47540494      -0.48988437       0.29142657
Si       2.52117010       2.83123023       5.42442951       0.81289026      -0.29500323       0.98608414
Si       0.05806391       2.57698992       8.32114999      -0.48079243       1.28297354      -1.09448416
Si       2.72670955       0.04406605       8.15366013      -0.43766681       0.37434619      -0.26971258
Si       1.29035019       1.39592014       6.87106975       0.70091589      -0.44764012      -0.97095345
Si       4.04967941       4.08104995       6.87056032      -0.62822746      -0.13082621      -0.38197851
Si       1.29287995       4.10887948       9.45046017       0.57571396       0.41567359       1.44405983
Si       4.04894948       1.29026981       9.55523936       0.22850705       0.62836476      -0.58681187
Si       5.50077959      10.82679938       5.44775022      -2.36526476      -0.89003775      -0.86609950
Si       8.14006959       2.63067969       5.52999946      -0.11670854       0.27511678      -0.75760537
Si       5.37004999       2.68378944       8.16181966      -0.20552550      -0.45947079       0.03749028
Si       8.06157969       0.06207090       8.29688971       0.71719843      -0.23961242      -1.06175351
Si       6.62542019       1.27916993       6.78231961       2.03948182       1.15082500       1.23959748
Si       9.63020997       3.91835023       6.80076003       0.72545758      -1.40919053      -0.44405497
Si       6.79146976       4.01575955       9.41844985       0.87098151       0.47048771       0.32848954
Si       9.64342034       1.30227015       9.63233024      -1.06484809      -1.34443216       0.62398257
Si      10.77550032       5.29371946       5.32823020       0.96633652       0.63998563       1.13927407
Si       2.83140945       8.04737980       5.33513952       0.23152810       1.44979699      -0.06413231
Si      11.06519964       8.19536043       7.96393032      -0.44251848      -0.49954092       0.37911585
Si       2.80880997       5.47677023       8.30808952      -1.16124209      -0.25151868      -1.73917774
Si       1.49989011       6.72289035       6.57146973      -0.95264257      -0.81074107       1.46235709
Si       3.98731958       9.56506947       6.82377009       1.29137487      -1.41617262      -0.48176868
Si       1.52314022       9.47581968       9.47149009      -0.14295771      -0.80519983       0.45767307
Si       4.18167009       6.71737028       9.60980027      -0.02370223       0.84449863      -0.00789277
Si       5.38426943       5.31073044       5.40192996       0.09445436       1.01405646       0.37531961
Si       8.28512943       8.12935966       5.54741015      -1.61061461       0.36089392      -1.48451588
Si       5.39907977       8.12537982       8.23622001       0.13286947       0.02745501      -1.35720643
Si       8.30747039       5.21095971       7.94441999      -2.40086785       2.23409196       1.23476767
Si       6.81523038       6.75264028       6.67384951      -0.36941713      -0.44297228       1.08673717
Si       9.52410996       9.52390032       6.80600963       0.42320075       1.46176779       0.59004684
Si       6.68070994       9.53749955       9.55098037       0.61669426      -0.26052114       0.55596095
Si       9.44364969       6.87850044       9.22166952       0.96928275      -0.67480274      -0.42519387
