64
Lattice="10.861999859992501 0.0 0.0 0.0 10.861999859992501 0.0 0.0 0.0 10.861999859992501" Properties=species:S:1:pos:R:3:atomic_forces_forces:R:3 po-id=PO_6162200402369205724693874 co-id=CO_14765234763767012 ds-id=DS_2ss789k5xko8_0 energy_energy=-9930.6830609159 cauchy_stress_stress="_JSON [-0.01667466044963724, -0.01788295587123972, -0.017410104699412003, -0.0021282893520323293, 0.00024606624087345305, -0.0008217510656035093]" pbc="T T T"
Si      10.89019978       0.01386426      10.91900038       0.19850613      -0.07735909      -0.61573833
Si       2.78125960       2.67746993      -0.18782244       0.57857457      -0.27982524       1.37568777
Si      -0.01614310       2.76011020       2.79097023       0.88930370       0.47976708      -0.16954780
Si       2.73018973      10.90370016       2.58422944      -1.35324410       0.07426606       0.35523518
Si       1.35844950       1.48632022       1.27358035      -0.18651631      -0.05630253       0.37695072
Si       3.98998946       4.04650010       1.40091014       0.40478805      -1.25878383      -0.86309953
Si       1.49983037       4.14849971       4.12258950      -1.40107896       0.45619598      -0.74170078
Si       4.03176037       1.33347993       3.99029034       1.71353613      -1.07097220      -0.20919498
Si       5.55468009      -0.21824690      11.01679965      -0.27589505       0.86998238      -0.59944216
Si       8.22311936       2.70469010      10.82619979       0.52498224      -0.35655853       0.31281455
Si       5.42798029       2.60222017       2.58812021      -0.70540786       0.89246899       0.61124558
Si       8.15986993       0.14953063       2.87655953       0.12628745      -0.82436921      -0.49815124
Si       6.88946998       1.38315946       1.36275954       0.04477422      -0.99871777      -0.61093576
Si       9.45802990       4.13151046       1.46903986       0.77915713      -0.79184527      -1.42006733
Si       6.75772044       4.08235013       3.86125955      -0.17840345       0.02604219       0.19580082
Si       9.47111969       1.54312956       4.21991953      -0.21205662      -0.07780621      -0.37492598
Si      10.94499966       5.19719973      -0.11994472       0.06455937       0.16307633       1.83882187
Si       2.58638011       8.08070985      -0.11452350       0.29806208      -1.44678957       0.06334067
Si       0.06982311       8.17005957       2.78203949      -0.07676928      -0.21322776      -0.37687333
Si       2.88710979       5.50084042       2.70203977      -1.80704792       0.30697198       0.77546065
Si       1.30126976       6.67581010       1.36890960       0.38152137       0.42484652      -0.51057095
Si       3.82455034       9.47458032       1.14800042       1.34029088      -0.27609946       1.87280311
Si       1.23909024       9.66969008       4.09825970       1.08731104      -0.05502958      -0.12863615
Si       4.01030031       6.83217945       4.22557972       0.35926024      -0.24798958       0.78508198
Si       5.36971001       5.26521974       0.06187104      -0.34889253       0.95507124      -0.60048911
Si       8.32736957       8.01244001      10.94609998      -0.89282329       0.51422809       0.48666612
Si       5.16177006       8.16311984       2.79663041       0.44512044       0.43174016      -1.65299436
Si       8.07773040       5.53330042       2.60291968      -0.93434557       0.80768583       0.03593245
Si       6.50392003       6.83992948       1.27257018       1.61546988       0.31109268       0.85310668
Si       9.61097989       9.61311970       1.55251976      -0.94341308      -0.35722650      -0.83400724
Si       6.70960938       9.46249961       3.93967016       1.20043958      -0.12744984       1.32065305
Si       9.44433943       6.87149989       3.96205022      -0.26300560      -0.26595183       1.24757587
Si      10.77929985      11.03209986       5.47294028       0.14413013      -1.04834006       0.96455604
Si       2.84092999       2.71331996       5.28298020      -0.50256994       0.13652095       1.08951268
Si      -0.00587960       2.71181014       8.05643980      -1.10135492       0.80796325      -0.46331510
Si       2.70517998       0.18231432       8.15838944       0.34455122      -0.64603004       0.01096987
Si       1.40129031       1.52610012       6.71124954       0.16492161      -0.73634261      -0.28281055
Si       4.22265024       3.88760968       6.73438995      -1.78365242       1.74193139      -0.61889358
Si       1.46569980       3.96351985       9.35843948      -1.29512945      -0.40651326       0.20915899
Si       4.27164981       1.24475043       9.53241939       0.29522795       0.75405905      -0.07941649
Si       5.58337967      10.88520001       5.37091026      -1.54319591       0.05208438       0.77400052
Si       8.01476991       2.90778017       5.38948971      -0.12389503      -1.18456610       0.35924353
Si       5.52392977       2.91151996       8.17306943       0.08588024      -3.25859352       0.87326182
Si       8.08462994      -0.12468381       8.39981042      -0.36216353       0.29010014      -1.71530119
Si       6.81321983       1.39413008       6.88769947       0.44045054      -0.01163090      -0.28762648
Si       9.28619958       4.24930016       6.70042991       1.75063432      -0.92525595       0.68627089
Si       6.78762026       4.03328974       9.62095012       0.84541446       0.64613031      -0.05577108
Si       9.55574988       1.27733968       9.39640977       0.28054361       0.54764163       1.35796567
Si      10.74320000       5.51113976       5.40004975       1.51865911       0.28153914      -0.38657899
Si       2.66003968       8.36988018       5.53927017       0.80411431       0.25843263      -1.70630439
Si      10.97169954       8.03104987       8.08798956      -0.29530277       0.55907584       1.01230708
Si       2.64201962       5.29495012       8.02900021       1.94328528       0.90437731      -0.97718787
Si       1.54921989       6.85672974       6.66875957      -2.40150394      -1.50662634       0.76387346
Si       4.06355996       9.57464976       6.89001960       0.49659546       1.22728447      -0.66080411
Si       1.43295956       9.54995935       9.48811003      -1.36096821       0.17816408      -0.76003918
Si       4.03972982       6.62296973       9.47475955      -0.29274375       0.18998704      -0.18733263
Si       5.54014022       5.29731044       5.43437041      -0.72214600       1.18374489      -0.32316093
Si       8.15433031       8.07597945       5.62953013      -0.23447304       0.79236360      -2.08041198
Si       5.35518969       8.13468964       8.13244990      -0.33935554      -0.61804589       0.90189517
Si       8.11639043       5.38765946       8.24776958      -0.97596351       1.01346793       0.26058311
Si       6.70952031       6.78903993       6.86715943       0.56197322      -0.92803763      -0.02991401
Si       9.48941021       9.48830989       6.93817953       0.27365794       0.26763718      -0.33747272
Si       6.77551022       9.25328989       9.61745038       0.66837575       0.13137977       0.13157518
Si       9.59740022       6.57557991       9.56044986       0.24295819       1.37496658      -0.74363528
