64
Lattice="10.862 0.0 0.0 0.0 10.862 0.0 0.0 0.0 10.862" Properties=species:S:1:pos:R:3:atomic_forces_forces:R:3:quests_descriptor_descriptors:R:63 energy_energy=-261.89156 energy_per_atom=F quests_descriptor_num_nearest_neighbors=32 quests_descriptor_cutoff=5.0 quests_descriptor_species="_JSON [\"species-agnostic\"]" pbc="T T T"
Si      10.89020000       0.01386430      10.91900000       0.18206300       0.05134730      -0.90903000       0.26359370       0.26106020       0.24984969       0.24590115       0.05533376       0.04912501       0.04777349       0.04751718       0.04392937       0.04378001       0.04358902       0.04311563       0.04113449       0.03736731       0.03690676       0.03147064       0.02109643       0.01204399       0.01059777       0.00998609       0.00856299       0.00563839       0.00558645       0.00486070       0.00436767       0.00378207       0.00333547       0.00305016       0.00000000       0.00000000       0.00000000       0.00000000       0.08385079       0.05954120       0.05720455       0.04935500       0.04420339       0.03987798       0.03176509       0.03034137       0.02837269       0.02543046       0.02403554       0.02211040       0.02120440       0.02009118       0.01919826       0.01805577       0.01707285       0.01505940       0.01282536       0.01161393       0.01063535       0.00959614       0.00879817       0.00781535       0.00697376       0.00625427       0.00538812       0.00000000       0.00000000       0.00000000       0.00000000
Si       2.78126000       2.67747000      -0.18782200       0.61041800      -0.19888000       1.68487000       0.27969222       0.25556737       0.25550033       0.24216389       0.06985506       0.05809147       0.05597579       0.05365078       0.05324773       0.04506673       0.04494120       0.04410475       0.04392937       0.03082852       0.02973169       0.02693217       0.01525093       0.01352648       0.01322168       0.01291234       0.01255472       0.01140843       0.00784174       0.00682317       0.00610623       0.00571318       0.00232971       0.00231134       0.00000000       0.00000000       0.00000000       0.00000000       0.08779775       0.06248661       0.05984899       0.05185006       0.04717675       0.04147892       0.03499173       0.03244666       0.03030360       0.02779740       0.02545436       0.02353561       0.02233254       0.02117116       0.02035470       0.01910405       0.01769822       0.01623926       0.01470111       0.01334753       0.01226486       0.01156061       0.01018846       0.00914683       0.00798467       0.00675026       0.00556684       0.00000000       0.00000000       0.00000000       0.00000000
Si      -0.01614280       2.76011000       2.79097000       0.98657700       0.78837900      -0.06801930       0.26384585       0.25671567       0.24423533       0.23584815       0.05281265       0.05132677       0.04763845       0.04752344       0.04713570       0.04337809       0.04255371       0.04155485       0.04113449       0.03767966       0.03282567       0.02693217       0.01369220       0.01366432       0.01278812       0.01260173       0.01058541       0.01051056       0.01038825       0.00948873       0.00919678       0.00806087       0.00310983       0.00288882       0.00000000       0.00000000       0.00000000       0.00000000       0.08532325       0.06058820       0.05794381       0.04972454       0.04491333       0.04054689       0.03289856       0.03102195       0.02930123       0.02700819       0.02484540       0.02279631       0.02126301       0.02021992       0.01961821       0.01867181       0.01795277       0.01693489       0.01537260       0.01381969       0.01261139       0.01152577       0.01052737       0.00998858       0.00918383       0.00732769       0.00639214       0.00000000       0.00000000       0.00000000       0.00000000
Si       2.73019000      10.90370000       2.58423000      -1.94026000       0.02789310       0.60508600       0.26957485       0.26762991       0.25028087       0.23410203       0.05797415       0.05533376       0.05363012       0.05233568       0.04702604       0.04539900       0.04494120       0.04155485       0.03981297       0.03873403       0.03317276       0.03020381       0.01529886       0.01309223       0.01255252       0.01236515       0.00992304       0.00685390       0.00635648       0.00585319       0.00558137       0.00449840       0.00325720       0.00289489       0.00000000       0.00000000       0.00000000       0.00000000       0.08566365       0.06080315       0.05821787       0.05025441       0.04565504       0.04092340       0.03321146       0.03141062       0.02914106       0.02693994       0.02425481       0.02266001       0.02180177       0.02069080       0.01975696       0.01886050       0.01681841       0.01553227       0.01429717       0.01227866       0.01120998       0.01041611       0.00948698       0.00836014       0.00768685       0.00687005       0.00573524       0.00000000       0.00000000       0.00000000       0.00000000
Si       1.35845000       1.48632000       1.27358000       0.07412170      -0.34292000       0.61169300       0.26359370       0.25550033       0.25028087       0.24423533       0.05764203       0.05332848       0.04784452       0.04770976       0.04580111       0.04480675       0.04461505       0.04281963       0.03971248       0.03918979       0.03828971       0.03044401       0.02254962       0.01238612       0.01169004       0.01081456       0.00980850       0.00893438       0.00717722       0.00605051       0.00449841       0.00436916       0.00386591       0.00358783       0.00000000       0.00000000       0.00000000       0.00000000       0.08541889       0.06084528       0.05831345       0.04992020       0.04568088       0.04096804       0.03330615       0.03120108       0.02896314       0.02674727       0.02468105       0.02316425       0.02194263       0.02073782       0.01992893       0.01865051       0.01763708       0.01631662       0.01476590       0.01254043       0.01118332       0.01043764       0.00958778       0.00871749       0.00779853       0.00691851       0.00636903       0.00000000       0.00000000       0.00000000       0.00000000
Si       3.98999000       4.04650000       1.40091000       0.78117800      -1.71219000      -1.23457000       0.28482529       0.27605573       0.25627419       0.24216389       0.05764203       0.05615943       0.05502133       0.05099028       0.05018758       0.05014414       0.04722235       0.04320205       0.04312251       0.03771377       0.03666144       0.03458814       0.01752015       0.01368642       0.01309223       0.01038825       0.00807133       0.00795920       0.00761681       0.00760666       0.00701746       0.00474166       0.00354559       0.00268372       0.00000000       0.00000000       0.00000000       0.00000000       0.08927148       0.06284765       0.05992011       0.05237070       0.04702224       0.04285579       0.03460126       0.03302994       0.02982557       0.02767121       0.02612776       0.02395239       0.02255899       0.02182740       0.02056033       0.01907587       0.01798269       0.01620616       0.01494134       0.01321576       0.01180268       0.01073238       0.00984149       0.00898905       0.00837621       0.00725201       0.00605039       0.00000000       0.00000000       0.00000000       0.00000000
Si       1.49983000       4.14850000       4.12259000      -1.57301000       0.55936100      -1.04164000       0.27481353       0.24625235       0.23584815       0.23103243       0.05740572       0.05653004       0.05615943       0.05379675       0.05163520       0.04840613       0.04787960       0.03984868       0.03918979       0.03691259       0.03279368       0.03146507       0.01918812       0.01154674       0.00969732       0.00888759       0.00836409       0.00828949       0.00635648       0.00528011       0.00509234       0.00298323       0.00231134       0.00197095       0.00000000       0.00000000       0.00000000       0.00000000       0.08450003       0.05941257       0.05716192       0.04882653       0.04464065       0.04171220       0.03325596       0.03150897       0.02860990       0.02640490       0.02429631       0.02272227       0.02183103       0.02063151       0.01940194       0.01785859       0.01625799       0.01516397       0.01342572       0.01187838       0.01065363       0.00922820       0.00853734       0.00788928       0.00688344       0.00588139       0.00480426       0.00000000       0.00000000       0.00000000       0.00000000
Si       4.03176000       1.33348000       3.99029000       2.12759000      -1.04895000      -0.23713700       0.28661309       0.26762991       0.25816120       0.23445395       0.05099028       0.05073459       0.04963106       0.04787960       0.04779875       0.04580111       0.04485493       0.04127527       0.04061323       0.03868813       0.03645684       0.03130204       0.01361625       0.01339722       0.01122626       0.01019375       0.00948873       0.00867097       0.00784260       0.00771554       0.00729746       0.00722160       0.00610623       0.00263799       0.00000000       0.00000000       0.00000000       0.00000000       0.08670819       0.06230499       0.05833089       0.05031059       0.04503594       0.04183053       0.03326265       0.03098628       0.02870028       0.02704228       0.02498496       0.02308353       0.02148638       0.02081429       0.01970379       0.01836736       0.01752193       0.01645767       0.01482986       0.01298544       0.01204692       0.01104317       0.00997829       0.00953984       0.00865789       0.00815088       0.00623421       0.00000000       0.00000000       0.00000000       0.00000000
Si       5.55468000      -0.21824700      11.01680000      -0.35860700       1.35464000      -1.10059000       0.26726545       0.26543497       0.24466245       0.23625345       0.06058453       0.06021797       0.05296596       0.05233568       0.04811730       0.04512055       0.04473226       0.03710196       0.03492100       0.03082852       0.02883365       0.02756428       0.02445949       0.01916322       0.01122626       0.01109147       0.00750710       0.00708286       0.00606643       0.00597086       0.00492685       0.00411696       0.00358783       0.00268372       0.00000000       0.00000000       0.00000000       0.00000000       0.08502626       0.06050003       0.05788830       0.04910520       0.04537828       0.04072605       0.03324505       0.02984509       0.02818188       0.02649105       0.02438243       0.02316285       0.02183855       0.02046025       0.01933655       0.01769129       0.01677760       0.01564021       0.01421057       0.01277693       0.01119123       0.00989277       0.00900897       0.00831063       0.00735705       0.00651770       0.00600187       0.00000000       0.00000000       0.00000000       0.00000000
Si       8.22312000       2.70469000      10.82620000       0.58963200      -0.33596700       0.55399200       0.27086165       0.26037684       0.24373220       0.24224714       0.05604648       0.05335733       0.05274005       0.04777349       0.04771993       0.04524658       0.04419390       0.04418924       0.04255371       0.04145643       0.04117049       0.03492100       0.01585086       0.01238612       0.01220553       0.01213641       0.01130740       0.00864445       0.00702931       0.00686886       0.00553420       0.00358294       0.00354559       0.00273727       0.00000000       0.00000000       0.00000000       0.00000000       0.08694626       0.06159437       0.05825110       0.05078679       0.04598440       0.04232917       0.03388430       0.03209877       0.02994806       0.02672197       0.02533360       0.02377896       0.02179712       0.02112044       0.02024820       0.01908581       0.01800409       0.01650441       0.01411932       0.01308226       0.01151411       0.01078303       0.00975227       0.00879601       0.00790983       0.00675465       0.00559344       0.00000000       0.00000000       0.00000000       0.00000000
Si       5.42798000       2.60222000       2.58812000      -0.70270200       1.21932000       0.85395600       0.27926122       0.25816120       0.25627419       0.25545328       0.05787135       0.05683930       0.05363012       0.05296596       0.05210916       0.04716998       0.04495795       0.04418924       0.04410475       0.04256802       0.03778168       0.03568375       0.01556876       0.01540746       0.01103300       0.01081456       0.00959434       0.00845253       0.00828949       0.00785655       0.00694910       0.00604548       0.00336348       0.00196581       0.00000000       0.00000000       0.00000000       0.00000000       0.08890527       0.06304233       0.06067004       0.05263341       0.04734125       0.04338830       0.03476627       0.03351414       0.03039975       0.02776862       0.02605649       0.02458204       0.02297469       0.02164340       0.02070372       0.01935820       0.01830431       0.01681336       0.01506714       0.01354198       0.01195467       0.01099943       0.00989881       0.00930248       0.00864561       0.00720771       0.00545409       0.00000000       0.00000000       0.00000000       0.00000000
Si       8.15987000       0.14953100       2.87656000       0.37195300      -0.92104800      -0.86099800       0.26310286       0.26113086       0.25285914       0.24424292       0.06554169       0.05683930       0.05634837       0.05237697       0.05132677       0.04811730       0.04117049       0.03736731       0.03435360       0.03081334       0.02610127       0.02409022       0.01623335       0.01405491       0.01116747       0.01086473       0.01019375       0.00906635       0.00687514       0.00605051       0.00308830       0.00291416       0.00174934       0.00023796       0.00000000       0.00000000       0.00000000       0.00000000       0.08345585       0.05940371       0.05716612       0.04892397       0.04364899       0.03969827       0.03234600       0.03010866       0.02807804       0.02572409       0.02351600       0.02193885       0.02073856       0.01970468       0.01842710       0.01701720       0.01596576       0.01471274       0.01310543       0.01181225       0.01061878       0.00962482       0.00848578       0.00713430       0.00634352       0.00486495       0.00206952       0.00000000       0.00000000       0.00000000       0.00000000
Si       6.88947000       1.38316000       1.36276000      -0.05630220      -1.21925000      -0.59868000       0.27926122       0.26310286       0.26037684       0.24466245       0.05703953       0.05387248       0.05039426       0.04993840       0.04769062       0.04720589       0.04273670       0.04061323       0.04016774       0.03666144       0.03439013       0.02403896       0.01661390       0.01287299       0.01059777       0.01058541       0.01045265       0.00970167       0.00829795       0.00685390       0.00677013       0.00571318       0.00393496       0.00373104       0.00000000       0.00000000       0.00000000       0.00000000       0.08644804       0.06175436       0.05906158       0.05047028       0.04527634       0.04096631       0.03337251       0.03124658       0.02893206       0.02668273       0.02457901       0.02271683       0.02167065       0.02038119       0.01970718       0.01866589       0.01721867       0.01566966       0.01444587       0.01324362       0.01181066       0.01099329       0.00994901       0.00922880       0.00863916       0.00741504       0.00655093       0.00000000       0.00000000       0.00000000       0.00000000
Si       9.45803000       4.13151000       1.46904000       1.00699000      -1.11436000      -1.90368000       0.27747779       0.25671567       0.24373220       0.24159896       0.06368143       0.05556247       0.05492857       0.05400668       0.04993840       0.04879490       0.04647802       0.04461505       0.03691259       0.03157814       0.02647910       0.02415060       0.01702007       0.01345109       0.01317692       0.01086473       0.00959434       0.00902130       0.00875157       0.00818070       0.00558645       0.00348927       0.00257981       0.00232971       0.00000000       0.00000000       0.00000000       0.00000000       0.08519857       0.06083722       0.05884154       0.05039233       0.04635529       0.03960504       0.03363099       0.03099181       0.02908014       0.02707904       0.02481004       0.02277933       0.02167602       0.02058096       0.01947917       0.01826273       0.01677101       0.01553442       0.01428434       0.01271295       0.01176931       0.01063172       0.00974691       0.00841176       0.00755715       0.00638924       0.00562227       0.00000000       0.00000000       0.00000000       0.00000000
Si       6.75772000       4.08235000       3.86126000      -0.29294700       0.06433020       0.31750300       0.26997053       0.26291100       0.26279856       0.25545328       0.06368143       0.05703953       0.05502133       0.05243369       0.04769362       0.04651307       0.04407719       0.04127527       0.04124011       0.03901733       0.02949909       0.02930604       0.01989430       0.01658519       0.01623335       0.01213641       0.01211672       0.01051056       0.00844004       0.00786799       0.00772787       0.00550948       0.00426538       0.00163498       0.00000000       0.00000000       0.00000000       0.00000000       0.08905443       0.06345441       0.06082500       0.05271766       0.04738988       0.04215862       0.03523143       0.03297481       0.03016836       0.02810987       0.02599646       0.02400816       0.02272528       0.02157079       0.02102469       0.01987103       0.01834978       0.01695283       0.01573350       0.01422689       0.01321656       0.01187491       0.01080030       0.00974586       0.00864138       0.00765719       0.00552788       0.00000000       0.00000000       0.00000000       0.00000000
Si       9.47112000       1.54313000       4.21992000      -0.42050200      -0.11165800      -0.72868600       0.27689266       0.26703816       0.26384585       0.26113086       0.05746299       0.05243369       0.05170545       0.04948467       0.04879490       0.04722527       0.04273670       0.04199125       0.03984868       0.03325212       0.03044401       0.02950203       0.01846211       0.01443632       0.01440376       0.00845253       0.00746951       0.00723106       0.00553420       0.00378207       0.00325720       0.00278748       0.00271073       0.00217376       0.00000000       0.00000000       0.00000000       0.00000000       0.08503051       0.06075490       0.05860151       0.04955611       0.04466540       0.03990481       0.03235018       0.03054955       0.02801231       0.02579910       0.02364477       0.02225399       0.02097446       0.02034856       0.01910713       0.01815946       0.01628177       0.01478375       0.01328144       0.01160493       0.01020679       0.00906967       0.00812374       0.00722762       0.00631959       0.00565829       0.00512252       0.00000000       0.00000000       0.00000000       0.00000000
Si      10.94500000       5.19720000      -0.11994500      -0.02621610       0.49535500       2.10796000       0.27989431       0.26718955       0.24159896       0.24088937       0.05884411       0.05604648       0.05597579       0.05266137       0.04888631       0.04713570       0.04548020       0.04307960       0.04058854       0.03451101       0.03307106       0.02307454       0.02254962       0.01368642       0.01271578       0.01185712       0.00934700       0.00900191       0.00528011       0.00423818       0.00369830       0.00239281       0.00027773       0.00013243       0.00000000       0.00000000       0.00000000       0.00000000       0.08480495       0.05979225       0.05709082       0.04923579       0.04440968       0.04068819       0.03286100       0.03071137       0.02845992       0.02640582       0.02412770       0.02250737       0.02130203       0.02032421       0.01923387       0.01780575       0.01664053       0.01548054       0.01358060       0.01171227       0.01049481       0.00948765       0.00806290       0.00646987       0.00561005       0.00227878       0.00150719       0.00000000       0.00000000       0.00000000       0.00000000
Si       2.58638000       8.08071000      -0.11452300       0.38705100      -1.84951000       0.19622500       0.28225328       0.28196282       0.24371071       0.24226965       0.06120135       0.04751718       0.04624587       0.04548020       0.04448320       0.04395908       0.04022048       0.03984829       0.03873403       0.03710196       0.03667378       0.03488166       0.01569304       0.01413199       0.01223917       0.01186015       0.00951314       0.00843348       0.00819954       0.00707071       0.00701746       0.00386591       0.00288770       0.00224413       0.00000000       0.00000000       0.00000000       0.00000000       0.08585824       0.06110792       0.05784285       0.04939244       0.04421593       0.04058133       0.03278833       0.03063193       0.02889273       0.02606869       0.02443271       0.02289988       0.02105453       0.02014390       0.01929686       0.01861055       0.01712270       0.01604943       0.01447224       0.01292678       0.01177780       0.01074320       0.00949928       0.00889856       0.00746873       0.00655585       0.00566912       0.00000000       0.00000000       0.00000000       0.00000000
Si       0.06982360       8.17006000       2.78204000      -0.10420300      -0.19635800      -0.51799800       0.27018154       0.26768300       0.26717426       0.24743675       0.05220005       0.05077013       0.04789073       0.04539900       0.04395908       0.04378001       0.04065756       0.04006730       0.03707550       0.03435360       0.03380284       0.02307454       0.01587587       0.01311930       0.01138714       0.00888759       0.00818070       0.00607274       0.00559001       0.00548732       0.00532117       0.00449841       0.00278748       0.00059595       0.00000000       0.00000000       0.00000000       0.00000000       0.08293663       0.05938741       0.05593292       0.04766747       0.04257979       0.03815559       0.03106476       0.02913976       0.02634445       0.02431027       0.02282928       0.02172329       0.02026967       0.01905239       0.01811584       0.01703265       0.01551125       0.01423366       0.01261211       0.01147471       0.01039463       0.00955678       0.00827233       0.00736245       0.00691275       0.00610029       0.00313905       0.00000000       0.00000000       0.00000000       0.00000000
Si       2.88711000       5.50084000       2.70204000      -2.34670000       0.13221800       0.87925600       0.28482529       0.26682572       0.25093962       0.24625235       0.07400979       0.06145528       0.04701990       0.04585117       0.04448320       0.04256802       0.04065756       0.03307106       0.03282567       0.02988010       0.02974024       0.02973169       0.02540972       0.01658519       0.01281656       0.01178872       0.01155281       0.00771554       0.00717722       0.00667534       0.00348927       0.00307564       0.00297624       0.00292213       0.00000000       0.00000000       0.00000000       0.00000000       0.08561345       0.06141959       0.05845354       0.05058588       0.04472893       0.03909235       0.03290628       0.03070082       0.02799580       0.02646058       0.02397231       0.02282566       0.02134917       0.01993109       0.01912093       0.01768271       0.01691470       0.01610697       0.01458587       0.01307186       0.01165760       0.01012204       0.00928897       0.00815536       0.00724837       0.00625583       0.00549051       0.00000000       0.00000000       0.00000000       0.00000000
Si       1.30127000       6.67581000       1.36891000       0.53984200       0.46249400      -0.58876000       0.25093962       0.24743675       0.24371071       0.24088937       0.05490203       0.05400668       0.05163520       0.05014414       0.05001500       0.04899359       0.04037138       0.03964151       0.03646559       0.03549157       0.03406085       0.02909407       0.01761417       0.01278812       0.01249448       0.01087637       0.01044221       0.00802108       0.00742614       0.00682317       0.00563839       0.00458579       0.00449840       0.00284598       0.00000000       0.00000000       0.00000000       0.00000000       0.08481088       0.05954470       0.05706285       0.04961526       0.04503730       0.04054873       0.03267710       0.03080012       0.02817453       0.02645660       0.02392023       0.02259272       0.02152222       0.02063410       0.01955704       0.01824651       0.01688612       0.01589211       0.01430397       0.01265281       0.01142049       0.01063853       0.00964049       0.00886841       0.00800644       0.00727158       0.00592091       0.00000000       0.00000000       0.00000000       0.00000000
Si       3.82455000       9.47458000       1.14800000       1.79829000      -0.48256800       2.32147000       0.28225328       0.26957485       0.26726545       0.22600796       0.07676420       0.06047643       0.05022774       0.04899359       0.04784452       0.04651871       0.04523520       0.03733415       0.03645684       0.03144719       0.02854743       0.02403896       0.02109643       0.01587587       0.01544477       0.01281656       0.01240439       0.01140843       0.00694910       0.00478387       0.00337474       0.00145117       0.00069794       0.00023796       0.00000000       0.00000000       0.00000000       0.00000000       0.08556616       0.06089377       0.05827596       0.04975932       0.04484968       0.04009268       0.03356994       0.03120169       0.02877078       0.02658238       0.02405241       0.02277809       0.02131443       0.01997616       0.01930306       0.01819458       0.01710377       0.01564695       0.01434996       0.01295594       0.01164412       0.01018808       0.00837028       0.00689992       0.00506115       0.00328283       0.00205281       0.00000000       0.00000000       0.00000000       0.00000000
Si       1.23909000       9.66969000       4.09826000       1.55061000       0.07113580      -0.06892890       0.26717426       0.25977253       0.24560635       0.23410203       0.06813576       0.04963106       0.04904863       0.04722527       0.04512281       0.04221740       0.04209841       0.03971248       0.03733415       0.03451884       0.03423457       0.02909407       0.01405491       0.01366432       0.01217726       0.01204399       0.01160495       0.00941246       0.00728539       0.00707681       0.00608971       0.00313403       0.00297624       0.00288770       0.00000000       0.00000000       0.00000000       0.00000000       0.08499028       0.05996582       0.05697235       0.04995522       0.04443540       0.03958120       0.03267818       0.03029791       0.02838378       0.02609443       0.02399924       0.02262092       0.02100349       0.01993737       0.01891805       0.01798222       0.01714676       0.01561531       0.01441461       0.01268849       0.01135296       0.01048911       0.00962201       0.00876123       0.00765583       0.00663961       0.00552109       0.00000000       0.00000000       0.00000000       0.00000000
Si       4.01030000       6.83218000       4.22558000       0.31914300      -0.37144500       1.10096000       0.27839870       0.26682572       0.23968998       0.22892972       0.07765193       0.05740572       0.04881250       0.04858587       0.04505301       0.04190782       0.04121827       0.03901733       0.03646559       0.03458814       0.03451884       0.02854743       0.01467880       0.01433940       0.01138714       0.01117268       0.00829660       0.00815394       0.00653072       0.00599184       0.00585319       0.00388342       0.00224413       0.00196581       0.00000000       0.00000000       0.00000000       0.00000000       0.08638771       0.06042660       0.05588973       0.04950776       0.04458255       0.03943063       0.03326024       0.03058191       0.02847580       0.02577274       0.02394497       0.02259556       0.02104126       0.02004401       0.01881456       0.01753718       0.01666267       0.01505859       0.01359388       0.01230212       0.01091774       0.00990233       0.00904875       0.00798898       0.00711346       0.00646480       0.00495772       0.00000000       0.00000000       0.00000000       0.00000000
Si       5.36971000       5.26522000       0.06187070      -0.58025400       1.15080000      -0.80361500       0.27605573       0.27368314       0.27334868       0.24904579       0.06220653       0.06145528       0.05809147       0.05787135       0.05330961       0.04419390       0.04406331       0.03488166       0.03388790       0.03306155       0.03218612       0.03003155       0.01989430       0.01287299       0.01180594       0.01145177       0.01058986       0.00902130       0.00802108       0.00691002       0.00629644       0.00478387       0.00435548       0.00388342       0.00000000       0.00000000       0.00000000       0.00000000       0.08810151       0.06346549       0.06105125       0.05132082       0.04662667       0.04250845       0.03464062       0.03193974       0.02984606       0.02730688       0.02512741       0.02351988       0.02272140       0.02128156       0.01973089       0.01860146       0.01771054       0.01626858       0.01489980       0.01321026       0.01184651       0.01095475       0.01050142       0.00958841       0.00848120       0.00762516       0.00647759       0.00000000       0.00000000       0.00000000       0.00000000