64
Lattice="10.862 0.0 0.0 0.0 10.862 0.0 0.0 0.0 10.862" Properties=species:S:1:pos:R:3:atomic_forces_forces:R:3:quests_descriptor_descriptors:R:63 PBC="1 1 1" energy_energy=-264.18824 quests_descriptor_num_nearest_neighbors=32 quests_descriptor_cutoff=5.0 quests_descriptor_species="_JSON [\"species-agnostic\"]" pbc="T T T"
Si      11.07690000      -0.23627300      10.97520000      -0.08875280      -0.14661500      -0.71459200       0.28036657       0.27712660       0.26703356       0.25290995       0.08143539       0.07258043       0.06744563       0.04363178       0.04258346       0.04123149       0.03846183       0.03615904       0.03511252       0.03306632       0.03189738       0.02659254       0.02395185       0.02274978       0.01877270       0.01301139       0.00956089       0.00710625       0.00705428       0.00494272       0.00362824       0.00336672       0.00296880       0.00005823       0.00000000       0.00000000       0.00000000       0.00000000       0.08935979       0.06430888       0.05961856       0.05178244       0.04609607       0.04078954       0.03503440       0.03279935       0.02902538       0.02760772       0.02516867       0.02381293       0.02248175       0.02117018       0.01994560       0.01794001       0.01740150       0.01653497       0.01527835       0.01362420       0.01158426       0.00983895       0.00890942       0.00792487       0.00683123       0.00593345       0.00105906       0.00000000       0.00000000       0.00000000       0.00000000
Si       2.63813000       2.76067000      -0.01216010       1.84393000      -0.92568600       0.00649916       0.27453853       0.26566077       0.24114931       0.23228419       0.04952495       0.04923516       0.04729237       0.04552547       0.04533689       0.04374874       0.04258346       0.04079495       0.03768906       0.03616305       0.03340472       0.02913076       0.01819413       0.01104444       0.01098562       0.00889512       0.00870742       0.00846735       0.00752165       0.00564222       0.00555824       0.00535629       0.00273892       0.00249748       0.00000000       0.00000000       0.00000000       0.00000000       0.08380792       0.05885294       0.05604387       0.04773065       0.04313392       0.04003297       0.03134069       0.02948822       0.02718269       0.02500672       0.02349178       0.02213742       0.02058166       0.01986680       0.01864067       0.01749515       0.01631270       0.01507919       0.01370168       0.01217814       0.01070803       0.00992666       0.00897947       0.00805423       0.00757310       0.00642803       0.00556238       0.00000000       0.00000000       0.00000000       0.00000000
Si      -0.09799430       2.79426000       2.61849000       0.01877040       0.14322700      -1.34912000       0.26594326       0.26433121       0.23761277       0.22280619       0.05720342       0.05451452       0.04989084       0.04729237       0.04489303       0.04316187       0.04236123       0.04178745       0.04098880       0.03893492       0.03818670       0.03615904       0.02515736       0.01208370       0.01205808       0.01125869       0.01095570       0.01001524       0.00651002       0.00632941       0.00618654       0.00474553       0.00450359       0.00368611       0.00000000       0.00000000       0.00000000       0.00000000       0.08669139       0.06108227       0.05735365       0.05018745       0.04603065       0.04158831       0.03347638       0.03187393       0.02970614       0.02691169       0.02507068       0.02387868       0.02195052       0.02100966       0.01988795       0.01921450       0.01801271       0.01669696       0.01527350       0.01320475       0.01208904       0.01094823       0.00982482       0.00889515       0.00842837       0.00736121       0.00661811       0.00000000       0.00000000       0.00000000       0.00000000
Si       2.65653000      10.92750000       2.62646000       0.43980600       0.00080267       2.12582000       0.27561195       0.27286057       0.24333761       0.23460665       0.07258043       0.05230724       0.04923516       0.04434975       0.04430455       0.04098880       0.03957949       0.03791334       0.03734686       0.03721191       0.03656471       0.03639493       0.01605559       0.01040678       0.01039463       0.01032335       0.00955149       0.00770791       0.00748945       0.00658864       0.00617837       0.00526299       0.00443159       0.00186919       0.00000000       0.00000000       0.00000000       0.00000000       0.08538642       0.06077424       0.05782454       0.04976376       0.04421107       0.04010880       0.03321896       0.03052610       0.02835078       0.02612777       0.02424024       0.02318434       0.02112972       0.01998944       0.01901655       0.01815790       0.01673145       0.01523947       0.01409176       0.01240686       0.01124718       0.01026887       0.00927002       0.00855521       0.00799032       0.00692504       0.00545475       0.00000000       0.00000000       0.00000000       0.00000000
Si       1.33535000       1.34158000       1.27880000      -0.47717000       1.32840000       0.95661100       0.28036657       0.27561195       0.26566077       0.23761277       0.08507880       0.05102548       0.04947345       0.04783210       0.04467781       0.04457386       0.04415964       0.04340953       0.04058603       0.03598022       0.03538634       0.02620261       0.01137400       0.01076764       0.00977384       0.00961047       0.00792971       0.00788662       0.00781364       0.00665964       0.00551023       0.00501360       0.00493397       0.00422134       0.00000000       0.00000000       0.00000000       0.00000000       0.08759641       0.06227974       0.05899020       0.05104321       0.04556280       0.04005390       0.03446999       0.03088702       0.02863468       0.02658115       0.02485055       0.02275968       0.02131836       0.02053008       0.01917673       0.01811296       0.01623406       0.01486474       0.01372197       0.01224167       0.01098954       0.01021910       0.00946350       0.00881798       0.00807300       0.00745694       0.00655988       0.00000000       0.00000000       0.00000000       0.00000000
Si       4.12469000       4.13377000       1.32433000      -1.86523000      -0.80523300       0.77255000       0.28679664       0.26060704       0.24114931       0.24012113       0.05306770       0.05123680       0.05067264       0.04725369       0.04012404       0.03947941       0.03777054       0.03674656       0.03660681       0.03598022       0.03439652       0.03258972       0.00937466       0.00900619       0.00816576       0.00811777       0.00755886       0.00748945       0.00743551       0.00690305       0.00651075       0.00589032       0.00474553       0.00337153       0.00000000       0.00000000       0.00000000       0.00000000       0.08313481       0.05840689       0.05595694       0.04805345       0.04251374       0.03861959       0.03096548       0.02921523       0.02621881       0.02429049       0.02276319       0.02187143       0.02011174       0.01887708       0.01821779       0.01657705       0.01559880       0.01398423       0.01296249       0.01167093       0.01023877       0.00948426       0.00878407       0.00826225       0.00788341       0.00708774       0.00621783       0.00000000       0.00000000       0.00000000       0.00000000
Si       1.29302000       4.05539000       3.98890000      -0.06285700       1.33265000       0.17277300       0.26704580       0.26433121       0.25041089       0.24412938       0.05502126       0.05248226       0.04790044       0.04734863       0.04415964       0.04213651       0.04012404       0.03775322       0.03551454       0.03528362       0.03421317       0.03375745       0.01418096       0.01143939       0.01098562       0.01039463       0.00892463       0.00719145       0.00700667       0.00679717       0.00564809       0.00556710       0.00471212       0.00460649       0.00000000       0.00000000       0.00000000       0.00000000       0.08383526       0.05996750       0.05753102       0.04979039       0.04346524       0.03931344       0.03153247       0.03027659       0.02800216       0.02503616       0.02334523       0.02257618       0.02077366       0.01975363       0.01901871       0.01785354       0.01651863       0.01501845       0.01405079       0.01255124       0.01109471       0.01015692       0.00939066       0.00888103       0.00823029       0.00749904       0.00660366       0.00000000       0.00000000       0.00000000       0.00000000
Si       4.08284000       1.38825000       4.12412000      -0.49955500       0.19168600      -1.49549000       0.26375797       0.25973081       0.24080690       0.23460665       0.05256490       0.04910543       0.04740859       0.04639282       0.04280409       0.04213651       0.04198191       0.04075861       0.03791335       0.03777054       0.03538634       0.02968644       0.01581602       0.01147792       0.01044694       0.00890991       0.00885358       0.00761045       0.00757410       0.00700107       0.00695657       0.00535629       0.00501955       0.00368611       0.00000000       0.00000000       0.00000000       0.00000000       0.08363516       0.05898842       0.05653784       0.04866772       0.04354915       0.03985433       0.03146164       0.02973814       0.02723684       0.02541881       0.02369597       0.02234480       0.02079258       0.01975349       0.01869924       0.01785170       0.01670128       0.01541913       0.01394843       0.01232749       0.01118700       0.01038508       0.00952943       0.00883885       0.00792775       0.00735714       0.00673287       0.00000000       0.00000000       0.00000000       0.00000000
Si       5.40450000      -0.19633900      10.97250000       0.42571400       1.33717000      -0.03602530       0.27522180       0.26828750       0.25755542       0.24681997       0.07036919       0.05623238       0.05568233       0.05230724       0.04535548       0.04449952       0.03586898       0.03438614       0.03420411       0.03221344       0.03144668       0.02913076       0.01748005       0.01451132       0.01374372       0.01016100       0.00873419       0.00788662       0.00761045       0.00671806       0.00465278       0.00428581       0.00337153       0.00161575       0.00000000       0.00000000       0.00000000       0.00000000       0.08536163       0.06120233       0.05874709       0.04851417       0.04536708       0.04054972       0.03340697       0.03077909       0.02765655       0.02593847       0.02394100       0.02244465       0.02154364       0.02030357       0.01869604       0.01774657       0.01652949       0.01539441       0.01408094       0.01262880       0.01144496       0.01020774       0.00925955       0.00804081       0.00735754       0.00638510       0.00511402       0.00000000       0.00000000       0.00000000       0.00000000
Si       8.15848000       2.63210000      10.88880000      -0.47226700      -0.30997100       0.39448800       0.26100749       0.25671859       0.24942361       0.23466325       0.05720342       0.05240307       0.04901222       0.04729306       0.04594468       0.04296109       0.04232322       0.03586898       0.03263359       0.03241923       0.03147336       0.02659254       0.01103132       0.01076764       0.00971356       0.00913135       0.00903720       0.00887397       0.00870294       0.00842698       0.00816576       0.00568388       0.00487678       0.00323142       0.00000000       0.00000000       0.00000000       0.00000000       0.08288295       0.05915545       0.05578242       0.04775480       0.04336416       0.03852814       0.03161989       0.02939365       0.02733053       0.02507061       0.02327992       0.02176189       0.02065023       0.01929839       0.01803520       0.01709239       0.01594483       0.01515078       0.01411549       0.01221414       0.01119184       0.01035366       0.00959930       0.00875810       0.00821518       0.00779944       0.00639470       0.00000000       0.00000000       0.00000000       0.00000000
Si       5.45879000       2.80457000       2.71353000      -0.32256600      -1.79773000      -0.31339000       0.27555659       0.26060704       0.24080690       0.23604017       0.05907366       0.05004794       0.04594468       0.04370389       0.04242844       0.04154337       0.03900115       0.03879243       0.03871157       0.03791334       0.03768906       0.03420411       0.01313779       0.01048019       0.01036156       0.00909096       0.00848539       0.00762104       0.00700667       0.00574923       0.00501360       0.00491580       0.00456709       0.00383561       0.00000000       0.00000000       0.00000000       0.00000000       0.08314414       0.05941059       0.05666581       0.04815671       0.04296634       0.03924989       0.03176061       0.02982093       0.02746071       0.02506659       0.02361369       0.02231048       0.02038735       0.01937961       0.01879253       0.01770337       0.01627218       0.01491950       0.01331647       0.01171365       0.01040003       0.00989331       0.00909840       0.00841899       0.00772526       0.00723671       0.00611800       0.00000000       0.00000000       0.00000000       0.00000000
Si       8.25058000       0.08223370       2.91139000      -1.43162000      -3.16339000      -1.53950000       0.30030974       0.26871727       0.22832569       0.22700681       0.06705225       0.06213768       0.06146029       0.05451452       0.04761224       0.04677802       0.04296109       0.04120208       0.03900115       0.03306632       0.03235275       0.03221344       0.01608978       0.01597411       0.01508475       0.01356737       0.01120671       0.01034434       0.00961047       0.00700107       0.00371149       0.00339101       0.00312009       0.00183446       0.00000000       0.00000000       0.00000000       0.00000000       0.08875339       0.06241718       0.05923257       0.05114892       0.04648532       0.04239051       0.03487850       0.03217488       0.03024673       0.02802879       0.02560887       0.02374271       0.02252713       0.02122327       0.02042590       0.01905353       0.01800541       0.01651215       0.01510436       0.01344212       0.01238002       0.01115797       0.00982860       0.00882604       0.00729303       0.00637329       0.00512634       0.00000000       0.00000000       0.00000000       0.00000000
Si       6.81407000       1.18082000       1.48010000      -0.55523700       1.83943000      -0.71939400       0.26871727       0.24681997       0.23604017       0.23466325       0.05385219       0.05113164       0.05085939       0.04781435       0.04672791       0.04639282       0.04480252       0.04289127       0.04206227       0.03258972       0.03136440       0.02555609       0.02009609       0.01417979       0.01350563       0.01112414       0.01095570       0.00979776       0.00955149       0.00581445       0.00363808       0.00296880       0.00273892       0.00208911       0.00000000       0.00000000       0.00000000       0.00000000       0.08363649       0.05904277       0.05695776       0.04886553       0.04407186       0.04014004       0.03209654       0.03062272       0.02880623       0.02664020       0.02415665       0.02225172       0.02107851       0.02025216       0.01935873       0.01800633       0.01690996       0.01574628       0.01457111       0.01309902       0.01126008       0.01027140       0.00919959       0.00821524       0.00726713       0.00595744       0.00479712       0.00000000       0.00000000       0.00000000       0.00000000
Si       9.34493000       4.28442000       1.18037000       1.90770000      -1.00706000       1.01608000       0.26137555       0.26100749       0.24398622       0.22280619       0.06565965       0.06458552       0.06170317       0.05429763       0.04716643       0.04515230       0.04220857       0.03578500       0.03375745       0.03136440       0.02936609       0.02620261       0.02579205       0.01891521       0.01523020       0.01036156       0.01033326       0.00888198       0.00555824       0.00554497       0.00339101       0.00320886       0.00269990       0.00005823       0.00000000       0.00000000       0.00000000       0.00000000       0.08441918       0.05972006       0.05733427       0.04941783       0.04542962       0.03957512       0.03342246       0.03161796       0.02906764       0.02685300       0.02419883       0.02269978       0.02170717       0.02076294       0.01953722       0.01783022       0.01645999       0.01560973       0.01449270       0.01321918       0.01078197       0.00973379       0.00873504       0.00755973       0.00644848       0.00589601       0.00105166       0.00000000       0.00000000       0.00000000       0.00000000
Si       6.81293000       4.10475000       4.00463000       0.23688500       0.13284600       1.66695000       0.27555659       0.26339946       0.24426419       0.23995188       0.05059335       0.04754973       0.04725369       0.04724987       0.04716643       0.04656283       0.04487224       0.04280409       0.04206227       0.04181990       0.03900663       0.02873071       0.01536220       0.01205808       0.01120671       0.00971356       0.00847274       0.00734752       0.00729165       0.00718859       0.00596338       0.00583609       0.00522999       0.00511359       0.00000000       0.00000000       0.00000000       0.00000000       0.08542522       0.06081334       0.05800626       0.05021519       0.04448470       0.04107753       0.03257306       0.03099858       0.02879776       0.02634244       0.02502747       0.02275639       0.02108525       0.02062358       0.02001194       0.01874743       0.01706004       0.01563453       0.01404706       0.01264892       0.01161246       0.01075087       0.00985231       0.00886211       0.00823872       0.00767845       0.00718451       0.00000000       0.00000000       0.00000000       0.00000000
Si       9.54626000       1.42733000       4.04003000      -0.23466700       1.87762000       0.63865900       0.30030974       0.28989541       0.26594326       0.26029012       0.05502126       0.05337740       0.05085939       0.04934500       0.04487224       0.04467781       0.04312305       0.04127891       0.04015050       0.03937405       0.03294930       0.02936609       0.01281564       0.01133359       0.01103132       0.01040678       0.00929658       0.00805933       0.00790011       0.00762104       0.00705428       0.00537171       0.00500836       0.00164445       0.00000000       0.00000000       0.00000000       0.00000000       0.08741039       0.06354105       0.06001829       0.05135931       0.04449954       0.04070700       0.03279740       0.03133263       0.02855560       0.02647499       0.02473712       0.02303168       0.02150077       0.02046963       0.01948800       0.01791359       0.01691437       0.01566934       0.01439119       0.01241479       0.01132771       0.01070618       0.00974651       0.00907176       0.00811453       0.00752449       0.00526401       0.00000000       0.00000000       0.00000000       0.00000000
Si      10.90140000       5.55753000      -0.15247500      -0.17164000      -2.45179000       0.73890100       0.29175466       0.27483989       0.24575247       0.24398622       0.06576570       0.05766443       0.04691304       0.04538688       0.04533689       0.04397514       0.04397445       0.03891933       0.03818670       0.03681980       0.03258918       0.03147336       0.01124180       0.01099201       0.01028761       0.01002923       0.01001596       0.00723005       0.00589032       0.00564809       0.00535535       0.00433671       0.00422134       0.00191668       0.00000000       0.00000000       0.00000000       0.00000000       0.08533021       0.06081234       0.05786191       0.04916260       0.04412305       0.04006491       0.03263409       0.03040127       0.02759825       0.02547402       0.02386291       0.02284177       0.02090738       0.01986676       0.01869739       0.01756067       0.01615378       0.01470498       0.01309681       0.01165849       0.01056563       0.00975825       0.00871391       0.00808127       0.00758088       0.00679012       0.00528857       0.00000000       0.00000000       0.00000000       0.00000000
Si       2.55021000       8.11151000       0.02727890       2.30643000      -0.00093342      -0.13939800       0.26929693       0.26865722       0.24212458       0.23520113       0.08143539       0.06576570       0.05470462       0.04449952       0.04430455       0.04256653       0.04193365       0.03917187       0.03479380       0.03418432       0.03196545       0.02799158       0.01460417       0.01326159       0.01005501       0.00977384       0.00942854       0.00900619       0.00897354       0.00874396       0.00857222       0.00605997       0.00534331       0.00435253       0.00000000       0.00000000       0.00000000       0.00000000       0.08708408       0.06154311       0.05924919       0.05073366       0.04606017       0.04054187       0.03494173       0.03107152       0.02904092       0.02760434       0.02494641       0.02331330       0.02200549       0.02019169       0.01927276       0.01823983       0.01721491       0.01604961       0.01499465       0.01350891       0.01207937       0.01098601       0.01010459       0.00953206       0.00915903       0.00820123       0.00713678       0.00000000       0.00000000       0.00000000       0.00000000
Si      -0.21588900       8.23091000       2.72362000       2.88623000      -2.02879000       1.60035000       0.31179602       0.25991788       0.24299938       0.23649218       0.06744563       0.06213768       0.05961076       0.05604665       0.04828839       0.04197731       0.04193365       0.03681980       0.03673216       0.03639493       0.03612216       0.03472263       0.01298702       0.01133359       0.01072498       0.01033326       0.00792971       0.00751534       0.00751144       0.00632223       0.00629809       0.00471212       0.00196096       0.00141004       0.00000000       0.00000000       0.00000000       0.00000000       0.08689874       0.06134940       0.05860442       0.05021900       0.04578435       0.04188222       0.03445225       0.03158289       0.02890657       0.02639424       0.02474079       0.02345552       0.02209467       0.02055074       0.01899252       0.01819824       0.01612484       0.01514082       0.01344516       0.01218875       0.01092414       0.00989372       0.00908033       0.00824226       0.00746126       0.00599262       0.00442184       0.00000000       0.00000000       0.00000000       0.00000000
Si       2.64160000       5.51165000       2.66817000       0.87763900      -1.00594000       0.10098500       0.26702684       0.25189707       0.25041089       0.24012113       0.05470462       0.04605558       0.04518415       0.04397445       0.04374874       0.04308732       0.04236123       0.04197094       0.04055056       0.03879243       0.03630568       0.03612216       0.01287234       0.01075481       0.00921813       0.00819832       0.00778357       0.00629684       0.00579056       0.00554497       0.00551023       0.00511359       0.00501955       0.00448204       0.00000000       0.00000000       0.00000000       0.00000000       0.08356908       0.05866065       0.05645419       0.04827277       0.04326622       0.03957807       0.03129067       0.02995315       0.02707306       0.02512326       0.02373126       0.02235257       0.02037858       0.01966020       0.01885771       0.01778159       0.01608116       0.01456791       0.01274019       0.01143772       0.01057710       0.00979041       0.00890416       0.00817746       0.00742043       0.00698243       0.00662395       0.00000000       0.00000000       0.00000000       0.00000000
Si       1.21773000       6.78710000       1.36542000      -0.43645100       1.19262000       0.60941100       0.27483989       0.26865722       0.26702684       0.23649218       0.05580391       0.05429763       0.04841987       0.04790044       0.04283893       0.04157749       0.04111900       0.03674656       0.03623423       0.03599597       0.03469096       0.03430477       0.02274978       0.01450414       0.01208370       0.01155610       0.00996680       0.00846735       0.00755850       0.00617837       0.00586858       0.00366981       0.00279220       0.00237157       0.00000000       0.00000000       0.00000000       0.00000000       0.08632693       0.06126169       0.05759371       0.04975444       0.04466082       0.04016723       0.03233400       0.03060965       0.02826395       0.02598277       0.02433534       0.02297036       0.02142773       0.02021296       0.01916446       0.01839989       0.01699373       0.01594517       0.01457120       0.01309632       0.01198390       0.01045648       0.00924733       0.00826587       0.00764636       0.00648814       0.00546422       0.00000000       0.00000000       0.00000000       0.00000000
Si       3.96889000       9.48350000       1.42913000      -0.23480900      -1.13972000      -0.67085400       0.27522180       0.27286057       0.26006038       0.24212458       0.05281957       0.05233175       0.04969387       0.04783210       0.04625135       0.04480252       0.04341676       0.04283893       0.04268766       0.04198191       0.04089441       0.03853775       0.02395185       0.01352108       0.01287234       0.00928479       0.00674673       0.00632223       0.00580692       0.00564222       0.00456709       0.00446406       0.00347088       0.00183446       0.00000000       0.00000000       0.00000000       0.00000000       0.08705948       0.06157585       0.05824822       0.05084317       0.04533617       0.04185683       0.03298877       0.03196907       0.02943618       0.02659284       0.02499643       0.02366767       0.02232248       0.02078488       0.02000608       0.01898403       0.01778715       0.01534442       0.01396052       0.01223971       0.01091529       0.00987554       0.00869114       0.00799411       0.00727821       0.00645179       0.00508664       0.00000000       0.00000000       0.00000000       0.00000000
Si       1.28620000       9.56070000       4.07143000      -0.42557100       0.71337600      -0.08592310       0.24977203       0.24333761       0.24299938       0.23250871       0.05229215       0.05004016       0.04969387       0.04934500       0.04374213       0.04340953       0.04181821       0.04111900       0.04075861       0.03776054       0.03596037       0.03161623       0.01877270       0.01683283       0.01597411       0.01193417       0.00922839       0.00874396       0.00873287       0.00819832       0.00730795       0.00709550       0.00618654       0.00406648       0.00000000       0.00000000       0.00000000       0.00000000       0.08528146       0.06026527       0.05802436       0.05077143       0.04535165       0.04071005       0.03298454       0.03154147       0.02937773       0.02667533       0.02514034       0.02340769       0.02184046       0.02123225       0.02022687       0.01941817       0.01803809       0.01668558       0.01536112       0.01416476       0.01293403       0.01204871       0.01062823       0.00979446       0.00915248       0.00831914       0.00696490       0.00000000       0.00000000       0.00000000       0.00000000
Si       4.16746000       6.77009000       3.98760000      -1.52980000       1.12373000       0.12677100       0.27237731       0.25263117       0.25189707       0.23379967       0.05622798       0.05290411       0.05233175       0.05123680       0.05059335       0.04816536       0.04586327       0.04140234       0.03599597       0.03596020       0.03551454       0.03161623       0.01313779       0.01255571       0.01245661       0.01011704       0.00857222       0.00796447       0.00769871       0.00550135       0.00443868       0.00443159       0.00435381       0.00141004       0.00000000       0.00000000       0.00000000       0.00000000       0.08449152       0.05973202       0.05777504       0.04973401       0.04498783       0.04082389       0.03273613       0.03123354       0.02862288       0.02664625       0.02424523       0.02241184       0.02144286       0.02016685       0.01937885       0.01799141       0.01692487       0.01530551       0.01329921       0.01214076       0.01090769       0.00991163       0.00902948       0.00815301       0.00771858       0.00674700       0.00475121       0.00000000       0.00000000       0.00000000       0.00000000
Si       5.53249000       5.34289000       0.08094310       0.29759300       0.83694100      -2.48990000       0.28679664       0.27093996       0.23792531       0.23157068       0.05907366       0.04901222       0.04769007       0.04420426       0.04153836       0.04079495       0.04055056       0.03814081       0.03746446       0.03246036       0.02984295       0.02799158       0.02579205       0.01536220       0.01245661       0.00781816       0.00762086       0.00582737       0.00581445       0.00521856       0.00488937       0.00446406       0.00310849       0.00237157       0.00000000       0.00000000       0.00000000       0.00000000       0.08287473       0.05966351       0.05557547       0.04779489       0.04245598       0.03940505       0.03090790       0.02918928       0.02718913       0.02504354       0.02288200       0.02187326       0.02054287       0.01923461       0.01867228       0.01729957       0.01641651       0.01519496       0.01323616       0.01192454       0.01033438       0.00926367       0.00845006       0.00779809       0.00696506       0.00621581       0.00548583       0.00000000       0.00000000       0.00000000       0.00000000