64
Lattice="10.862 0.0 0.0 0.0 10.862 0.0 0.0 0.0 10.862" Properties=species:S:1:pos:R:3:atomic_forces_forces:R:3:kliff_descriptor_symmetry_function_descriptors:R:51 energy_energy=-261.93944 energy_per_atom=F kliff_descriptor_symmetry_function_cut_name=cos kliff_descriptor_symmetry_function_cut_dists="{\"Si-Si\": 4.0}" kliff_descriptor_symmetry_function_hyperparams=set51 pbc="T T T"
Si      10.77670000       0.10462600      10.79190000       0.76239700      -0.54431600       0.85405300       1.47365723       1.21698425       0.98684695       0.72377307       0.43495285       0.19444618       0.02638742       0.00049358       0.00702351       0.02147295       0.00327103       0.01772047       0.00542817       0.01661789       0.00252562       0.01371533       0.00348189       0.01068401       0.00161737       0.00881949       0.00187081       0.00575868       0.00086700       0.00475486       0.00030872       0.00363702       0.00000122       0.00102541       0.00077089       0.00238341       0.00035608       0.00196860       0.00012632       0.00150565       0.00000049       0.00042377       0.00013126       0.00040927       0.00006024       0.00033825       0.00002121       0.00025865       0.00000008       0.00007253       0.00000597       0.00001889       0.00000271       0.00001562       0.00000094       0.00001194       0.00000333
Si       2.70277000       2.83598000       0.14581900      -0.72704000      -1.76650000      -0.79833100       1.54264017       1.28403923       1.05019391       0.78003358       0.47863095       0.22126882       0.03277813       0.00074496       0.01060945       0.02268215       0.00568264       0.01775534       0.00821111       0.01761753       0.00439222       0.01379864       0.00527928       0.01139869       0.00281733       0.00893674       0.00284532       0.00619970       0.00151324       0.00486761       0.00061804       0.00356167       0.00000468       0.00087268       0.00117725       0.00260024       0.00062288       0.00204586       0.00025396       0.00149790       0.00000192       0.00036479       0.00020191       0.00045912       0.00010563       0.00036284       0.00004291       0.00026602       0.00000032       0.00006399       0.00000928       0.00002234       0.00000475       0.00001780       0.00000191       0.00001308       0.00000308
Si      -0.14843600       2.72039000       2.61741000       0.51658000      -1.21464000      -0.12249600       1.46647017       1.21274610       0.98480189       0.72363055       0.43602185       0.19563343       0.02680304       0.00051613       0.00724939       0.01807488       0.00365443       0.01447991       0.00558724       0.01390297       0.00281790       0.01113363       0.00356648       0.00884441       0.00180022       0.00707814       0.00190284       0.00469647       0.00096155       0.00375518       0.00036247       0.00280074       0.00000172       0.00074843       0.00077595       0.00190233       0.00039270       0.00151909       0.00014790       0.00113179       0.00000070       0.00030230       0.00012922       0.00031266       0.00006559       0.00024903       0.00002466       0.00018513       0.00000011       0.00004940       0.00000564       0.00001334       0.00000287       0.00001057       0.00000108       0.00000783       0.00000209
Si       2.77288000      10.75920000       2.87709000       0.30542800       0.75483700      -0.99088100       1.48015675       1.22406229       0.99397890       0.73040686       0.44026405       0.19778279       0.02721651       0.00052797       0.00583240       0.01974620       0.00266224       0.01657604       0.00448663       0.01529142       0.00204101       0.01284581       0.00285469       0.00984175       0.00129094       0.00827800       0.00151632       0.00531227       0.00067991       0.00447586       0.00026483       0.00346434       0.00000180       0.00091895       0.00061451       0.00220280       0.00027212       0.00186042       0.00010556       0.00144209       0.00000072       0.00038276       0.00010114       0.00037950       0.00004363       0.00032199       0.00001678       0.00025030       0.00000011       0.00006653       0.00000433       0.00001759       0.00000178       0.00001503       0.00000067       0.00001174       0.00000313
Si       1.41892000       1.28983000       1.42459000      -0.80612400       0.35031600      -0.05456430       1.38554138       1.13716243       0.91540160       0.66361175       0.39068555       0.16872748       0.02093032       0.00032490       0.00409590       0.01534961       0.00171266       0.01296637       0.00313861       0.01179976       0.00130980       0.00997095       0.00198358       0.00749881       0.00082495       0.00634017       0.00104361       0.00397626       0.00043190       0.00336454       0.00014540       0.00261340       0.00000041       0.00072888       0.00041713       0.00160733       0.00017138       0.00136159       0.00005753       0.00105820       0.00000016       0.00029462       0.00006673       0.00026311       0.00002700       0.00022338       0.00000901       0.00017380       0.00000003       0.00004822       0.00000271       0.00001114       0.00000107       0.00000950       0.00000035       0.00000740       0.00000204
Si       4.12242000       4.09481000       1.32383000       0.53386600       2.07824000       0.10020300       1.48130564       1.22911682       1.00173506       0.74010115       0.45018209       0.20540744       0.02966625       0.00066170       0.00991815       0.01910473       0.00523813       0.01442471       0.00772681       0.01478061       0.00408543       0.01113923       0.00502556       0.00949866       0.00266232       0.00713542       0.00275369       0.00511775       0.00146266       0.00382671       0.00054011       0.00266974       0.00000294       0.00067473       0.00116737       0.00211788       0.00062236       0.00157287       0.00022904       0.00109016       0.00000122       0.00027491       0.00021066       0.00036418       0.00011310       0.00026663       0.00004135       0.00018222       0.00000021       0.00004573       0.00001065       0.00001694       0.00000578       0.00001207       0.00000209       0.00000802       0.00000199
Si       1.27934000       3.93149000       3.94479000       0.09310230       1.37053000       0.39592400       1.47831985       1.22715126       1.00016658       0.73844122       0.44794775       0.20282567       0.02833630       0.00056314       0.01007485       0.01903849       0.00508644       0.01405007       0.00785481       0.01474900       0.00396785       0.01086204       0.00511584       0.00950033       0.00258680       0.00697129       0.00280904       0.00513551       0.00142236       0.00374883       0.00046407       0.00250402       0.00000148       0.00060528       0.00119481       0.00213547       0.00060623       0.00154690       0.00019648       0.00102364       0.00000060       0.00024597       0.00021731       0.00037093       0.00011073       0.00026435       0.00003544       0.00017143       0.00000010       0.00004067       0.00001118       0.00001759       0.00000574       0.00001215       0.00000180       0.00000757       0.00000175
Si       4.02560000       1.40043000       4.17770000      -1.03492000       0.77715500       0.76329600       1.40029173       1.15425242       0.93353152       0.68141818       0.40568100       0.17837579       0.02323773       0.00040652       0.00415720       0.01284680       0.00192751       0.01061711       0.00320799       0.00984340       0.00149155       0.00812696       0.00205226       0.00622021       0.00095875       0.00512670       0.00109850       0.00327224       0.00051657       0.00269031       0.00018345       0.00205459       0.00000058       0.00058548       0.00045016       0.00130785       0.00021364       0.00107133       0.00007597       0.00081603       0.00000024       0.00023252       0.00007578       0.00020929       0.00003661       0.00017012       0.00001305       0.00012885       0.00000004       0.00003671       0.00000338       0.00000852       0.00000168       0.00000682       0.00000060       0.00000511       0.00000145
Si       5.27583000       0.17313800      10.85190000      -0.23483600      -1.24913000      -0.00815463       1.56622120       1.30458731       1.06829183       0.79537069       0.49039565       0.22863783       0.03460974       0.00082117       0.01566444       0.02653395       0.00877818       0.01964769       0.01220402       0.02056481       0.00684519       0.01520598       0.00793682       0.01325452       0.00445861       0.00977631       0.00434685       0.00716847       0.00244709       0.00526871       0.00097137       0.00367830       0.00000537       0.00092629       0.00184031       0.00298082       0.00103909       0.00217961       0.00041227       0.00151491       0.00000226       0.00038067       0.00033049       0.00051642       0.00018768       0.00037360       0.00007439       0.00025725       0.00000040       0.00006436       0.00001647       0.00002417       0.00000944       0.00001714       0.00000373       0.00001159       0.00000288
Si       8.08484000       2.73526000      10.90620000       0.75256100      -0.21793400       0.14416700       1.60321885       1.34045628       1.10219130       0.82555118       0.51389419       0.24304582       0.03797741       0.00094730       0.01945005       0.03015523       0.01116664       0.02187182       0.01524847       0.02349657       0.00876054       0.01700863       0.01002544       0.01528672       0.00576656       0.01102784       0.00557645       0.00837968       0.00321262       0.00601585       0.00127863       0.00416164       0.00000674       0.00114818       0.00241481       0.00355467       0.00139419       0.00253405       0.00055374       0.00174139       0.00000287       0.00047879       0.00045441       0.00064245       0.00026341       0.00045145       0.00010419       0.00030594       0.00000052       0.00008352       0.00002469       0.00003263       0.00001440       0.00002234       0.00000566       0.00001474       0.00000397
Si       5.36001000       2.85854000       2.82083000       1.24228000      -1.28825000       0.39923300       1.39183772       1.14775986       0.92839004       0.67748757       0.40292698       0.17680981       0.02295613       0.00040453       0.00458404       0.01321068       0.00214521       0.01077185       0.00353788       0.01018417       0.00165579       0.00830208       0.00226386       0.00650376       0.00105972       0.00529961       0.00121216       0.00347241       0.00056758       0.00282783       0.00019127       0.00214109       0.00000054       0.00062458       0.00049694       0.00141759       0.00023280       0.00115345       0.00007826       0.00087260       0.00000021       0.00025444       0.00008371       0.00023671       0.00003926       0.00019226       0.00001314       0.00014521       0.00000003       0.00004231       0.00000373       0.00001038       0.00000176       0.00000841       0.00000058       0.00000633       0.00000184
Si       8.07087000      -0.09064320       2.44669000       0.21543500       1.74603000       1.08126000       1.47291820       1.21343728       0.98162856       0.71779843       0.42982532       0.19160998       0.02607895       0.00050507       0.00775937       0.02467512       0.00340803       0.02032378       0.00600794       0.01915508       0.00263409       0.01578122       0.00386600       0.01238054       0.00168979       0.01020433       0.00208635       0.00672219       0.00090801       0.00554385       0.00030751       0.00417279       0.00000143       0.00105087       0.00086504       0.00281096       0.00037418       0.00232010       0.00012598       0.00174667       0.00000057       0.00043893       0.00014906       0.00049237       0.00006370       0.00040701       0.00002120       0.00030652       0.00000009       0.00007669       0.00000692       0.00002346       0.00000290       0.00001944       0.00000094       0.00001465       0.00000364
Si       6.60377000       1.43577000       1.24414000       1.01053000       0.70801000       2.26921000       1.51775264       1.25340737       1.01721285       0.74800198       0.45284833       0.20604217       0.02982860       0.00067769       0.00884393       0.02916588       0.00410221       0.02442416       0.00685074       0.02271347       0.00316916       0.01903189       0.00441160       0.01476171       0.00203123       0.01238134       0.00238315       0.00807771       0.00108991       0.00678447       0.00042699       0.00524902       0.00000332       0.00142728       0.00098942       0.00341594       0.00044804       0.00287456       0.00017500       0.00222612       0.00000136       0.00060427       0.00017092       0.00061217       0.00007581       0.00051706       0.00002942       0.00040115       0.00000023       0.00010852       0.00000796       0.00003040       0.00000340       0.00002583       0.00000130       0.00002010       0.00000541
Si       9.45764000       4.17078000       1.25684000      -0.74135700       0.06446940       1.44225000       1.50605225       1.24284650       1.00731479       0.73863893       0.44429255       0.19935186       0.02743829       0.00053048       0.00749405       0.02708293       0.00328323       0.02287211       0.00580185       0.02111031       0.00253204       0.01784050       0.00373303       0.01374218       0.00161820       0.01162735       0.00201477       0.00753833       0.00086500       0.00638856       0.00031546       0.00497910       0.00000155       0.00138624       0.00083586       0.00320024       0.00035384       0.00271822       0.00012827       0.00212116       0.00000062       0.00058989       0.00014447       0.00057874       0.00005939       0.00049367       0.00002126       0.00038614       0.00000010       0.00010715       0.00000678       0.00002932       0.00000264       0.00002518       0.00000092       0.00001977       0.00000547
Si       6.90314000       4.03857000       4.32926000      -1.22036000      -0.18580300      -2.31724000       1.51353439       1.25365654       1.02012330       0.75233163       0.45668775       0.20786840       0.02972686       0.00063130       0.00930843       0.02581758       0.00447845       0.02098760       0.00720372       0.02009171       0.00345804       0.01634603       0.00463126       0.01304256       0.00221440       0.01062569       0.00249604       0.00712620       0.00118669       0.00581685       0.00043146       0.00439272       0.00000193       0.00117002       0.00103289       0.00300789       0.00048695       0.00246195       0.00017650       0.00186235       0.00000078       0.00049521       0.00017729       0.00053759       0.00008210       0.00044240       0.00002957       0.00033577       0.00000013       0.00008899       0.00000818       0.00002666       0.00000366       0.00002214       0.00000130       0.00001690       0.00000446
Si       9.44727000       1.23865000       3.99271000       0.30909900      -0.09393970      -0.87389100       1.43476626       1.18433648       0.95943977       0.70217334       0.42002653       0.18619424       0.02476144       0.00045033       0.00626232       0.01688945       0.00312168       0.01374880       0.00482794       0.01303287       0.00240547       0.01061039       0.00308345       0.00833685       0.00153497       0.00678837       0.00164639       0.00446136       0.00081858       0.00363355       0.00031015       0.00276555       0.00000129       0.00078443       0.00067214       0.00182720       0.00033359       0.00148865       0.00012626       0.00113295       0.00000052       0.00032069       0.00011221       0.00030703       0.00005549       0.00025030       0.00002095       0.00019047       0.00000009       0.00005368       0.00000492       0.00001361       0.00000241       0.00001111       0.00000091       0.00000845       0.00000236
Si      10.75360000       5.63025000      -0.01245850      -0.46727300      -0.16403100      -1.87582000       1.46291503       1.20884663       0.98073810       0.71971676       0.43295476       0.19406165       0.02670699       0.00052856       0.00728307       0.02157838       0.00348067       0.01777598       0.00564648       0.01680774       0.00269398       0.01385523       0.00364179       0.01093140       0.00173221       0.00902182       0.00197200       0.00599281       0.00093367       0.00495449       0.00034274       0.00380983       0.00000161       0.00109957       0.00082186       0.00254525       0.00038633       0.00210971       0.00014137       0.00162575       0.00000065       0.00047083       0.00014329       0.00046276       0.00006624       0.00038571       0.00002408       0.00029857       0.00000011       0.00008706       0.00000682       0.00002398       0.00000304       0.00002020       0.00000109       0.00001577       0.00000465
Si       2.95422000       8.26278000       0.18953300      -0.96767500       0.03968670      -1.72261000       1.41609902       1.15887354       0.93079244       0.67361432       0.39678523       0.17252061       0.02213900       0.00038286       0.00678903       0.02512796       0.00259095       0.02092989       0.00525603       0.01947067       0.00200423       0.01621887       0.00338124       0.01254416       0.00128748       0.01045040       0.00182377       0.00678009       0.00069306       0.00564938       0.00018659       0.00426972       0.00000035       0.00115069       0.00075538       0.00281655       0.00028624       0.00234742       0.00007667       0.00177440       0.00000014       0.00047845       0.00012977       0.00048679       0.00004891       0.00040593       0.00001297       0.00030694       0.00000002       0.00008286       0.00000597       0.00002265       0.00000223       0.00001891       0.00000058       0.00001431       0.00000387
Si       0.05896400       8.00999000       2.63874000      -2.30114000       1.99212000       2.04735000       1.48483805       1.22893222       0.99928680       0.73649455       0.44729760       0.20476538       0.03060470       0.00080564       0.00955074       0.02641747       0.00465473       0.02152146       0.00745621       0.02069565       0.00362768       0.01686711       0.00486715       0.01359173       0.00236084       0.01108543       0.00268042       0.00755059       0.00129447       0.00616464       0.00049013       0.00465452       0.00000269       0.00122030       0.00114446       0.00326538       0.00054912       0.00267004       0.00020722       0.00201690       0.00000113       0.00052641       0.00020941       0.00061366       0.00009910       0.00050335       0.00003714       0.00038062       0.00000020       0.00009852       0.00001083       0.00003335       0.00000499       0.00002751       0.00000185       0.00002085       0.00000533
Si       2.52618000       5.43396000       2.52967000       1.70903000       0.23435600       1.09295000       1.40108500       1.13905041       0.90845794       0.65089583       0.37748325       0.16038128       0.01946323       0.00029817       0.00473024       0.02904705       0.00123613       0.02555294       0.00365947       0.02263736       0.00094652       0.01992440       0.00235240       0.01473371       0.00059765       0.01297896       0.00126881       0.00808233       0.00031428       0.00712779       0.00007813       0.00567805       0.00000019       0.00156818       0.00052656       0.00343282       0.00012572       0.00303197       0.00003045       0.00241782       0.00000007       0.00066777       0.00009144       0.00062228       0.00002026       0.00055110       0.00000463       0.00044028       0.00000001       0.00012160       0.00000438       0.00003177       0.00000085       0.00002825       0.00000017       0.00002262       0.00000625
Si       1.28312000       6.97890000       1.20170000       2.02135000      -1.90483000      -0.07233090       1.60066074       1.33819481       1.10014902       0.82390125       0.51312885       0.24351538       0.03890630       0.00106846       0.02086199       0.02939495       0.01185521       0.02038817       0.01634778       0.02291602       0.00929911       0.01586735       0.01073927       0.01492126       0.00611912       0.01030111       0.00596621       0.00818748       0.00340739       0.00562866       0.00133985       0.00361063       0.00000729       0.00073840       0.00257877       0.00347692       0.00147757       0.00237572       0.00058150       0.00151521       0.00000314       0.00030848       0.00048325       0.00062901       0.00027864       0.00042440       0.00010984       0.00026744       0.00000059       0.00005396       0.00002603       0.00003187       0.00001517       0.00002101       0.00000600       0.00001294       0.00000257
Si       4.35882000       9.52405000       1.60227000      -2.07169000       1.39001000      -1.75970000       1.55012124       1.28470419       1.04633301       0.77307520       0.47122177       0.21636482       0.03186626       0.00073879       0.01314400       0.03174527       0.00644882       0.02505009       0.01023083       0.02480978       0.00501097       0.01958992       0.00664330       0.01622498       0.00324404       0.01282572       0.00363103       0.00895907       0.00176537       0.00709340       0.00063114       0.00515766       0.00000243       0.00122764       0.00153321       0.00384041       0.00074057       0.00304777       0.00026419       0.00221830       0.00000101       0.00052453       0.00027416       0.00070884       0.00013057       0.00056525       0.00004636       0.00041230       0.00000018       0.00009624       0.00001360       0.00003734       0.00000630       0.00003004       0.00000222       0.00002200       0.00000503
Si       1.39612000       9.37479000       4.08373000      -1.17786000       0.67906400      -0.47137900       1.51055864       1.25504508       1.02445736       0.75869006       0.46323721       0.21242171       0.03084654       0.00067729       0.00986925       0.02086096       0.00539222       0.01638393       0.00765263       0.01613549       0.00418338       0.01266624       0.00493633       0.01036397       0.00270094       0.00812859       0.00267280       0.00557853       0.00146427       0.00437000       0.00059083       0.00326101       0.00000340       0.00095151       0.00111326       0.00230417       0.00061095       0.00180187       0.00024652       0.00134281       0.00000141       0.00039135       0.00019351       0.00039396       0.00010656       0.00030701       0.00004300       0.00022818       0.00000024       0.00006634       0.00000911       0.00001802       0.00000504       0.00001396       0.00000204       0.00001033       0.00000299
Si       4.19763000       6.68891000       4.01254000      -1.26478000       0.27093500      -1.43413000       1.37285744       1.12820278       0.90951591       0.66087663       0.39079987       0.17030998       0.02188038       0.00038292       0.00338136       0.01366781       0.00144100       0.01172746       0.00258856       0.01050322       0.00110114       0.00901580       0.00163328       0.00667076       0.00069257       0.00573006       0.00085740       0.00353411       0.00036194       0.00303865       0.00013462       0.00241542       0.00000074       0.00073609       0.00034166       0.00142679       0.00014329       0.00122842       0.00005327       0.00097752       0.00000029       0.00029836       0.00005436       0.00023295       0.00002249       0.00020108       0.00000835       0.00016034       0.00000005       0.00004909       0.00000219       0.00000982       0.00000088       0.00000851       0.00000033       0.00000681       0.00000210
Si       5.64324000       5.40564000      -0.13022500      -0.29474000      -0.25232000       2.40639000       1.46792468       1.20846112       0.97711258       0.71424853       0.42774401       0.19090975       0.02616203       0.00052113       0.00506057       0.02358754       0.00192340       0.02045037       0.00389750       0.01828548       0.00147367       0.01586165       0.00248532       0.01179172       0.00093122       0.01023762       0.00132464       0.00638384       0.00048992       0.00554912       0.00017673       0.00440926       0.00000123       0.00126027       0.00053981       0.00265981       0.00019588       0.00231588       0.00007010       0.00184201       0.00000049       0.00052658       0.00009003       0.00046344       0.00003139       0.00040480       0.00001104       0.00032259       0.00000008       0.00009227       0.00000397       0.00002202       0.00000128       0.00001934       0.00000044       0.00001546       0.00000443
Si       8.02977000       8.22082000      10.76820000       1.10180000       0.30872600      -0.69764900       1.49644163       1.23079610       0.99412060       0.72552254       0.43332422       0.19245685       0.02586113       0.00047636       0.00814814       0.02706435       0.00354870       0.02246491       0.00629778       0.02101502       0.00273548       0.01745273       0.00404031       0.01358955       0.00174674       0.01129599       0.00217144       0.00738507       0.00093255       0.00614617       0.00033712       0.00464126       0.00000150       0.00108307       0.00089520       0.00309297       0.00038074       0.00257851       0.00013703       0.00194909       0.00000061       0.00045448       0.00015262       0.00054403       0.00006362       0.00045504       0.00002269       0.00034462       0.00000010       0.00008024       0.00000697       0.00002619       0.00000280       0.00002203       0.00000098       0.00001673       0.00000389
Si       5.65467000       8.08458000       2.65616000       0.24038800      -0.97197800       2.11198000       1.55984649       1.29226723       1.05244033       0.77795342       0.47499284       0.21891073       0.03258111       0.00077057       0.01362433       0.03383202       0.00668627       0.02689397       0.01067749       0.02644102       0.00524143       0.02100496       0.00701684       0.01729060       0.00344615       0.01371991       0.00390139       0.00954457       0.00191757       0.00756075       0.00067666       0.00555361       0.00000323       0.00145923       0.00168924       0.00408781       0.00083138       0.00322995       0.00029182       0.00236691       0.00000133       0.00062193       0.00031823       0.00075198       0.00015715       0.00059090       0.00005463       0.00043080       0.00000023       0.00011320       0.00001738       0.00003918       0.00000865       0.00003045       0.00000296       0.00002198       0.00000578
Si       8.07169000       5.41989000       2.81656000       2.52428000      -1.73134000       0.71801300       1.53453263       1.27428096       1.04012440       0.77094248       0.47220859       0.21829147       0.03268050       0.00079180       0.01290559       0.02677496       0.00671554       0.02058492       0.01006348       0.02079361       0.00523987       0.01597000       0.00655569       0.01345201       0.00341693       0.01031326       0.00359997       0.00731698       0.00187892       0.00559592       0.00068405       0.00400463       0.00000297       0.00105054       0.00153083       0.00307057       0.00080041       0.00234015       0.00029067       0.00166891       0.00000124       0.00043657       0.00027792       0.00054365       0.00014577       0.00041150       0.00005266       0.00029145       0.00000022       0.00007580       0.00001420       0.00002671       0.00000748       0.00001999       0.00000268       0.00001399       0.00000360
Si       7.04224000       6.72495000       1.39306000      -2.63698000       0.70244100      -2.08577000       1.54460265       1.28663740       1.05333150       0.78369734       0.48258604       0.22477645       0.03424687       0.00085244       0.01429998       0.02570462       0.00774029       0.01914493       0.01115209       0.02002554       0.00603630       0.01490975       0.00726591       0.01302498       0.00393266       0.00969172       0.00399038       0.00713720       0.00215961       0.00530642       0.00082191       0.00368450       0.00000346       0.00087135       0.00169676       0.00302597       0.00091815       0.00224735       0.00034940       0.00155748       0.00000147       0.00036468       0.00030781       0.00054624       0.00016649       0.00040492       0.00006335       0.00027963       0.00000026       0.00006420       0.00001568       0.00002765       0.00000847       0.00002045       0.00000322       0.00001404       0.00000312
Si       9.52410000       9.44662000       1.23394000       0.27283600      -0.28260300       0.18091700       1.48476621       1.22553881       0.99341975       0.72844013       0.43792111       0.19614423       0.02684251       0.00051489       0.00904806       0.02445450       0.00437930       0.01978574       0.00703398       0.01897675       0.00340623       0.01534901       0.00455760       0.01225853       0.00220891       0.00990984       0.00248334       0.00665207       0.00120492       0.00537365       0.00043015       0.00403670       0.00000140       0.00110915       0.00104376       0.00278036       0.00050717       0.00224377       0.00018087       0.00168422       0.00000058       0.00046283       0.00018475       0.00048716       0.00009000       0.00039241       0.00003203       0.00029412       0.00000010       0.00008085       0.00000897       0.00002331       0.00000439       0.00001873       0.00000156       0.00001401       0.00000385