64
Lattice="10.862 0.0 0.0 0.0 10.862 0.0 0.0 0.0 10.862" Properties=species:S:1:pos:R:3:force:R:3:descriptors:R:10:ltau_forces_uq_score:R:1 PBC="1 1 1" Energy=-264.67225 ltau_forces_uq_bins="9.826158705261703e-06 1.1027062170109953e-05 1.2374733988202081e-05 1.388711144604322e-05 1.558432403465697e-05 1.7488961369744564e-05 1.9626373855691547e-05 2.2025010095210678e-05 2.4716795535485803e-05 2.7737557390534585e-05 3.1127501495435235e-05 3.4931747439266745e-05 3.92009290992939e-05 4.399186856940476e-05 4.9368332452677637e-05 5.5401880584202616e-05 6.217281848051923e-05 6.977126619261002e-05 7.82983577887071e-05 8.786758743182653e-05 9.860631996809534e-05 0.00011065748613155361 0.00012418148492831835 0.00013935831852052977 0.0001563899880250244 0.00017550318211441527 0.00019695229420541328 0.00022102280839265498 0.00024803509919425754 0.0002783486956830725 0.0003123670667585158 0.00035054299125013993 0.0003933845843281282 0.00044146206043123326 0.0004954153227255848 0.0005559624801088134 0.000623909405119375 0.000700160459965258 0.0007857305334337209 0.0008817585488913106 0.000989522623163398 0.0011104570780553508 0.001246171530935888 0.0013984723184750493 0.0015693865386831691 0.0017611890312463712 0.0019764326552623285 0.0022179822673679007 0.0024890528525018216 0.0027932523148165534 0.0031346294982791336 0.003517728076107228 0.003947647026299737 0.004430108498181178 0.0049715339732521865 0.005579129734034302 0.00626098277848512 0.007026168456588584 0.007884871261745434 0.008848520384677058 0.009929941834042498 0.0111435291484686 0.012505434972141823 0.014033786043800957 0.015748924460598036 0.017673678428009317 0.019833666099432202 0.022257636549522425 0.024977852419569537 0.028030519327856575 0.03145626776038425 0.03530069385584423 0.03961496628259934 0.044456507285101664 0.04988975696436252 0.055987030964919623 0.06282948298397104 0.07050818491351256 0.07912533899198845 0.08879563809899231 0.09964779229831235 0.11182624194735377 0.12549308017413968 0.1408302103097339 0.15804176699115657 0.1773568331592601 0.19903248911436056 0.22335723421203718 0.250654826741305 0.2812885930932962 0.31566626357475674 0.3542453992302428 0.3975394819030924 0.44612474859288853 0.5006478610735438 0.5618345128533615 0.6304990880342648 0.7075555006279824 0.794029358598705 0.8910716145335489 0.9999738846290095" ltau_forces_uq_index_type=IndexFlatL2 ltau_forces_uq_index_args=None ltau_forces_uq_num_nearest_neighbors=1 pbc="T T T"
Si      10.72310000       0.28177000      10.78030000      -0.93634400      -0.57448200      -0.39052800       0.22637345       0.21531304       0.93291513       0.76778374       0.78958287       0.77498654       0.40827714       0.10302975       0.31661153       0.35591071       0.48717424
Si       2.70350000       2.70680000       0.03685430      -0.06544660      -0.32036800      -0.70712300       0.25558067       0.93860276       0.74766084       0.89695414       0.19600005       0.40597351       0.71736498       0.26654664       0.94287502       0.69328757       0.45037893
Si       0.09584860       2.59830000       2.81112000      -0.79358900       0.56652900       0.63834000       0.13754363       0.04577448       0.19465039       0.32453080       0.62750106       0.30563967       0.90727590       0.97768916       0.87347608       0.55942700       0.49904924
Si       2.81072000      10.83850000       2.66985000      -0.16164200      -0.61906100      -0.45518700       0.61888006       0.51721226       0.13079114       0.82643865       0.85534191       0.90445921       0.40763427       0.11984975       0.20675990       0.49019610       0.46018595
Si       1.32945000       1.32505000       1.37813000       1.04399000       0.05741660      -0.24365800       0.64575156       0.98997004       0.28832905       0.99682701       0.53976258       0.59023674       0.93786650       0.17302610       0.25204140       0.98249523       0.49769037
Si       4.01037000       4.11597000       1.34974000       0.83703600      -0.42630200       0.05162630       0.61724805       0.35373931       0.51684986       0.43409943       0.20479870       0.99610333       0.74535013       0.67210470       0.30430947       0.82635907       0.50918247
Si       1.39045000       4.02570000       4.15255000       0.49883400      -0.45572800       0.42225100       0.80116730       0.99115742       0.36862010       0.79667477       0.82557527       0.85630936       0.29372484       0.60673014       0.87188600       0.71774440       0.51488225
Si       4.18430000       1.38854000       3.94094000      -1.31846000      -0.77385800       1.56680000       0.01713028       0.02350157       0.78218314       0.66030143       0.82108158       0.71592025       0.29356884       0.14123005       0.98200325       0.25792878       0.47514917
Si       5.48617000       0.01030720      10.79610000      -1.53005000       0.57165100      -1.28519000       0.34280476       0.56445478       0.84664417       0.36265250       0.16455362       0.27242415       0.18802791       0.70772163       0.96181522       0.79169313       0.53725620
Si       8.18336000       2.80209000      10.89930000       0.20332500      -0.82936900      -0.16243600       0.82292672       0.00908256       0.40708375       0.54187520       0.09532941       0.25256595       0.66492426       0.13366365       0.03864812       0.82354463       0.48578759
Si       5.42597000       2.71828000       2.61261000       1.24511000       0.71095100      -0.15598600       0.47326171       0.72792439       0.81831518       0.35025041       0.18769758       0.47064046       0.06923850       0.55454210       0.68616566       0.97202918       0.44999182
Si       8.13817000      -0.13108200       2.48971000       0.64682900       1.56471000       1.77658000       0.75846296       0.87656800       0.50977696       0.67433572       0.71610444       0.22052759       0.16253998       0.78766775       0.91377867       0.32841181       0.48877403
Si       6.77832000       1.31033000       1.25171000       0.64898100       1.07040000       0.51351600       0.37243830       0.45444077       0.19924377       0.86313066       0.47487548       0.13951149       0.34151374       0.08481248       0.55703466       0.56568430       0.53593914
Si       9.62247000       4.02015000       1.54049000      -1.05453000      -1.15363000      -0.44997900       0.00445088       0.69086669       0.18603328       0.80952418       0.49943057       0.90313026       0.94983009       0.73258537       0.43585831       0.16587958       0.50112240
Si       6.85162000       4.05940000       4.03820000      -1.54264000       0.41607100      -0.44654600       0.16992421       0.98676166       0.21385045       0.95928710       0.40436927       0.95186385       0.50382834       0.73316244       0.56355446       0.71892825       0.50610578
Si       9.42440000       1.34418000       4.11135000       0.74873700      -1.26424000      -0.14552300       0.67264169       0.07953463       0.60620458       0.61530311       0.12120220       0.91476909       0.31886451       0.61214224       0.30921722       0.65057745       0.51010589
Si      10.94380000       5.19996000       0.16897500      -0.64973600       3.09573000      -0.64255300       0.71148766       0.18808934       0.58584158       0.34650365       0.38213602       0.60269921       0.32378918       0.42426798       0.75237009       0.80711323       0.51627556
Si       2.73899000       8.25597000      -0.04287800      -0.95521000      -0.63648400       0.21318000       0.96131808       0.88852288       0.60512797       0.44307592       0.98174683       0.57102877       0.45379216       0.32573514       0.17879244       0.78639162       0.50316773
Si       0.05888120       7.96576000       2.71954000      -0.12204000       1.41139000      -1.21423000       0.13749686       0.72939807       0.61285325       0.63239305       0.94245698       0.82062893       0.55424948       0.29978078       0.74787576       0.24505311       0.45546149
Si       2.79085000       5.40837000       2.84196000      -0.40319000       0.24342400      -0.07670460       0.07370165       0.89910472       0.62979612       0.56504866       0.65634240       0.01632623       0.10935234       0.10705610       0.09619539       0.48413303       0.48484834
Si       1.54635000       6.67188000       1.30596000      -0.92789000       0.60039000       0.77171700       0.27721703       0.61192882       0.96263199       0.02109966       0.21631016       0.78027052       0.34389005       0.18861221       0.05534618       0.75786503       0.53201450
Si       4.21862000       9.42977000       1.27574000      -1.41979000       1.86682000      -0.00100439       0.45431828       0.56951762       0.45750000       0.34567400       0.31797326       0.96213029       0.64553372       0.96678357       0.03735712       0.16594016       0.46223434
Si       1.41592000       9.47354000       4.05934000      -0.31219700       0.00233634       0.24443000       0.33376479       0.85061356       0.90006559       0.82763336       0.18459073       0.66104835       0.42283974       0.21089778       0.41670936       0.38910164       0.50929320
Si       4.02327000       6.89928000       4.18971000       1.66373000      -1.20328000      -1.50335000       0.25992067       0.24168476       0.42453869       0.94980897       0.80212679       0.62819869       0.37067809       0.20735146       0.28023712       0.27303019       0.48717424
Si       5.39580000       5.40466000      -0.05102410      -1.28068000       1.70511000       1.28178000       0.32377815       0.11161629       0.02241105       0.18104971       0.39265905       0.34144593       0.39788624       0.82994657       0.99324776       0.50150373       0.48106287
Si       8.00113000       8.15082000      10.91740000       0.90020800      -0.38255600      -0.45150900       0.82973346       0.10493769       0.19459267       0.57419808       0.45904181       0.56728937       0.59762872       0.00403449       0.57919762       0.26170695       0.49839181
Si       5.40033000       8.15148000       2.67308000       0.44271800      -0.95215500       1.35331000       0.42494365       0.91494822       0.09272429       0.46198993       0.34523509       0.00820488       0.33402014       0.61671083       0.07694566       0.53505134       0.52716642
Si       8.18194000       5.38471000       2.73789000      -0.43301100       0.06148730      -0.74666700       0.02486369       0.05848113       0.47085038       0.73372619       0.61434658       0.34170269       0.22819361       0.03517105       0.15239035       0.70717346       0.45060054
Si       6.74064000       6.74544000       1.40922000      -0.06651440      -0.58328200      -0.30357800       0.86450665       0.58785013       0.99985845       0.76052626       0.56132961       0.84348697       0.74371795       0.40304471       0.39702992       0.55173853       0.51823934
Si       9.52965000       9.48198000       1.15533000       1.19953000      -0.66803900       1.38314000       0.84248872       0.21933628       0.19191976       0.67371917       0.71451382       0.81634831       0.81865067       0.96312932       0.76204220       0.43033736       0.48042557
Si       6.85931000       9.45652000       3.95447000      -2.40306000       1.72104000       0.09248890       0.06038350       0.75439553       0.04325313       0.95029251       0.44325273       0.71426922       0.81285492       0.58806958       0.64036363       0.37775478       0.46823018
Si       9.49743000       6.64693000       4.06567000       0.27945900       1.32633000       0.26842600       0.93796568       0.62411427       0.54262121       0.66018993       0.42372292       0.91800064       0.11116420       0.32785428       0.63248469       0.41502519       0.55781402
Si      10.96920000      10.84680000       5.57614000      -1.35440000      -0.27469500      -2.40054000       0.18152481       0.86073258       0.00599643       0.40714836       0.35708947       0.98963070       0.88317569       0.25437477       0.14262330       0.74498069       0.49211152
Si       2.79839000       2.58982000       5.50542000      -0.51691100       0.25594100      -1.77214000       0.45776312       0.51485305       0.92114797       0.37179533       0.69510172       0.38877381       0.54069316       0.23211798       0.61975828       0.22661217       0.48882865
Si       0.04355170       2.89707000       8.02261000       0.75519500      -2.11012000       1.22727000       0.63496810       0.39798511       0.93376973       0.18553856       0.75588095       0.95474156       0.27578957       0.81652438       0.94712829       0.81199424       0.45995577
Si       2.62139000      -0.11471100       8.22613000       0.97225000       0.71748700      -0.64424900       0.37989675       0.26730202       0.24683265       0.46398645       0.03131828       0.82232112       0.90287450       0.05699547       0.43116167       0.65037378       0.44259870
Si       1.42300000       1.31347000       6.86971000      -0.38301200       0.79591200       0.29408500       0.65795964       0.23729427       0.96681939       0.43420773       0.18608898       0.26976627       0.33572385       0.52042198       0.03520722       0.85808017       0.47964663
Si       4.01883000       4.07859000       6.69812000       1.80820000       0.65321100       0.49633300       0.01024273       0.61746912       0.67742695       0.10594622       0.82316297       0.43119124       0.46559101       0.76847707       0.00590620       0.75957724       0.47967432
Si       1.33003000       4.07506000       9.57259000       1.25042000      -0.65809400      -1.27884000       0.24235543       0.91351425       0.71025721       0.86714554       0.27047004       0.77240152       0.91684161       0.65634950       0.65879852       0.40349743       0.51920374
Si       4.03381000       1.44975000       9.32371000       0.19824000      -1.28766000       2.19713000       0.26943658       0.33821267       0.26686429       0.32993098       0.57705148       0.81535143       0.01764791       0.69964568       0.49508394       0.19585297       0.52499165
Si       5.36216000      10.88900000       5.47144000       2.96950000       0.93088300      -1.49107000       0.38682636       0.91012822       0.17372740       0.62152244       0.51797061       0.65121164       0.19146147       0.05130743       0.08123212       0.98310268       0.46260493
Si       8.16760000       2.87557000       5.43039000       0.60729400      -1.32567000       0.41608800       0.10875989       0.93500889       0.41834585       0.26147737       0.37499703       0.30149720       0.66542748       0.49800128       0.40061733       0.51841523       0.48893738
Si       5.45689000       2.82295000       8.13306000      -0.47236400       0.63611100      -0.08908010       0.77911721       0.44725915       0.73170734       0.50154209       0.48007777       0.29547878       0.51367208       0.29097994       0.51338787       0.76606452       0.51810053
Si       8.15403000      -0.01542370       7.98942000      -0.73406100      -0.34515900       0.04053620       0.97048908       0.25361219       0.89398338       0.94700552       0.70108636       0.67708662       0.42870285       0.51661712       0.01761730       0.98447486       0.47209976
Si       6.84907000       1.56080000       6.82744000      -0.81331000      -1.87711000      -1.26825000       0.79586749       0.11353278       0.74053879       0.62873406       0.91595081       0.12773888       0.37182657       0.74685177       0.05325625       0.56820214       0.50168384
Si       9.47650000       4.12875000       6.90168000      -1.04754000       1.65400000      -1.31422000       0.01682758       0.28376906       0.51606975       0.89220024       0.46790974       0.58659107       0.70745538       0.13288754       0.66296676       0.80801227       0.48840642
Si       6.74227000       4.10350000       9.63491000       0.50716200      -0.58482400      -1.33411000       0.49604661       0.21663970       0.68218028       0.13550717       0.09568829       0.42496216       0.64252476       0.92602016       0.74328910       0.24078914       0.48106287
Si       9.34211000       1.54364000       9.15481000       1.32326000       0.36733800       2.37565000       0.45576067       0.81026260       0.64363187       0.76048367       0.93030482       0.50179701       0.20592948       0.78556087       0.00753009       0.05609740       0.50303204
Si      10.85620000       5.40148000       5.46999000      -0.55271600      -0.81609400      -0.04461560       0.97641102       0.20356142       0.40257999       0.70980711       0.06106415       0.13946330       0.19897932       0.36026437       0.92388751       0.03390936       0.51037268
Si       2.73447000       8.14031000       5.50848000      -2.03058000       0.01800920       0.67638100       0.45675868       0.14213794       0.29679685       0.43880568       0.13379074       0.80424405       0.98326913       0.26515326       0.91676920       0.48985881       0.52009748
Si      10.81570000       8.11898000       8.42669000      -0.83816000      -0.24486400      -2.89489000       0.63235198       0.77801921       0.36476318       0.48636434       0.55583727       0.26684607       0.93585954       0.80317411       0.85821375       0.68422175       0.45963833
Si       2.68773000       5.39230000       8.06992000      -0.05714260      -0.02371830       1.56882000       0.75526337       0.92037445       0.91354294       0.81881618       0.19187699       0.18218745       0.54388396       0.14692992       0.35532227       0.75204430       0.50412870
Si       1.24214000       6.67990000       6.87425000       0.70169400       2.51106000       0.04649060       0.54323896       0.42060128       0.37191184       0.99062266       0.93569154       0.94541075       0.31967005       0.97827466       0.07712470       0.43516476       0.55053546
Si       4.07079000       9.55066000       6.72552000      -0.52557200      -0.84945200       2.07734000       0.40413890       0.06624231       0.36008303       0.85354544       0.67437452       0.69369850       0.63082197       0.50568218       0.93222726       0.79853705       0.54925476
Si       1.14879000       9.62775000       9.63678000       1.55562000      -0.53871000       0.17305300       0.54711547       0.79151398       0.51031357       0.89354780       0.56876514       0.21092659       0.89343576       0.51085066       0.52691836       0.68174735       0.45963833
Si       3.99230000       6.84900000       9.45768000       0.85518300      -0.67514800      -0.41980100       0.30019913       0.79825591       0.30136445       0.54222969       0.19818667       0.92610971       0.75418780       0.00534762       0.32500870       0.59296540       0.47741678
Si       5.51342000       5.49091000       5.38981000      -0.98272900      -0.55896300       0.49527500       0.65633323       0.38266171       0.93266141       0.65081413       0.75752273       0.47347183       0.61169421       0.11043614       0.09446417       0.43232182       0.50529373
Si       8.05812000       8.12280000       5.23923000       1.28415000      -1.68394000       2.39430000       0.02500129       0.79348104       0.95172150       0.99354074       0.13795327       0.58264603       0.44861531       0.58326487       0.70860273       0.31814090       0.50929320
Si       5.45761000       8.18018000       8.13615000      -1.14482000       0.71428100       0.34025500       0.79239727       0.37305611       0.09463806       0.50072572       0.50883673       0.00757254       0.66813546       0.18162823       0.77406673       0.01849459       0.48290438
Si       8.03431000       5.47625000       8.28202000       1.63431000      -0.20463100       0.32263600       0.97273285       0.15313360       0.35307940       0.64173893       0.68974105       0.95896227       0.00655108       0.77196426       0.49720780       0.78003890       0.52863506
Si       6.75877000       6.79627000       6.90236000       0.70134900       0.44908700      -2.01603000       0.66696678       0.50958170       0.39376099       0.52513379       0.39013380       0.01726954       0.88441675       0.74113377       0.24315343       0.23110901       0.50956816
Si       9.47323000       9.40654000       6.66946000       0.67098000      -0.47464100       1.42344000       0.95503626       0.79810368       0.69254674       0.25734619       0.14415115       0.07469371       0.16197870       0.18736467       0.73388092       0.54024281       0.51734255
Si       6.82427000       9.54338000       9.48645000      -0.01074250      -0.09902020      -0.85124400       0.57012287       0.70369393       0.32125822       0.25041427       0.50049004       0.49765616       0.52055895       0.13880176       0.38479858       0.33279603       0.51217215
Si       9.48909000       6.75633000       9.73883000      -0.31323600      -1.21975000       0.05814640       0.61549873       0.55199626       0.24186754       0.89029053       0.30064291       0.08185633       0.87746412       0.57986620       0.69904032       0.22819517       0.50894561
