64
Lattice="10.862 0.0 0.0 0.0 10.862 0.0 0.0 0.0 10.862" Properties=species:S:1:pos:R:3:force:R:3:descriptors:R:10 PBC="1 1 1" Energy=-264.18824 pbc="T T T"
Si      11.07690000      -0.23627300      10.97520000      -0.08875280      -0.14661500      -0.71459200       0.48944652       0.87293584       0.72677593       0.37429028       0.51647947       0.94511256       0.02102609       0.15391381       0.39385218       0.66824013
Si       2.63813000       2.76067000      -0.01216010       1.84393000      -0.92568600       0.00649916       0.04888502       0.81256964       0.75079121       0.16749010       0.12487893       0.13254626       0.46698939       0.50030646       0.82365120       0.34999409
Si      -0.09799430       2.79426000       2.61849000       0.01877040       0.14322700      -1.34912000       0.32160378       0.75708547       0.59300247       0.72304133       0.83719699       0.23200080       0.50404999       0.42300455       0.49123231       0.38760422
Si       2.65653000      10.92750000       2.62646000       0.43980600       0.00080267       2.12582000       0.16434217       0.30940918       0.04824657       0.80570332       0.69623539       0.62576819       0.81436514       0.31329450       0.29585546       0.95720114
Si       1.33535000       1.34158000       1.27880000      -0.47717000       1.32840000       0.95661100       0.75258369       0.33972681       0.88400685       0.27937765       0.85312087       0.81728439       0.77176988       0.22192524       0.28293381       0.20155412
Si       4.12469000       4.13377000       1.32433000      -1.86523000      -0.80523300       0.77255000       0.31782736       0.97152878       0.69161094       0.18725892       0.13817546       0.94222727       0.66929597       0.00236418       0.04330209       0.03189529
Si       1.29302000       4.05539000       3.98890000      -0.06285700       1.33265000       0.17277300       0.04943456       0.08277523       0.17764693       0.95227659       0.79640169       0.55146819       0.46834233       0.47192604       0.64481217       0.87061979
Si       4.08284000       1.38825000       4.12412000      -0.49955500       0.19168600      -1.49549000       0.80449954       0.64934591       0.34538751       0.37639559       0.91496906       0.68549584       0.07381725       0.07043077       0.58106847       0.19129423
Si       5.40450000      -0.19633900      10.97250000       0.42571400       1.33717000      -0.03602530       0.65390578       0.07355967       0.48620222       0.15500971       0.37833408       0.86717711       0.45126197       0.64581084       0.71337338       0.93888216
Si       8.15848000       2.63210000      10.88880000      -0.47226700      -0.30997100       0.39448800       0.73845954       0.28799588       0.36113641       0.19866168       0.09739489       0.74719419       0.22741516       0.30206253       0.08094152       0.10660318
Si       5.45879000       2.80457000       2.71353000      -0.32256600      -1.79773000      -0.31339000       0.92031435       0.08015956       0.70851684       0.75670605       0.36862025       0.79438536       0.01622196       0.78838666       0.11772429       0.24698025
Si       8.25058000       0.08223370       2.91139000      -1.43162000      -3.16339000      -1.53950000       0.76294586       0.27285851       0.70621611       0.18049769       0.69936949       0.69577413       0.80624262       0.13676836       0.48075903       0.29292263
Si       6.81407000       1.18082000       1.48010000      -0.55523700       1.83943000      -0.71939400       0.42776926       0.41646121       0.83205377       0.64857217       0.41901155       0.62914079       0.71863075       0.44170797       0.03425044       0.34163837
Si       9.34493000       4.28442000       1.18037000       1.90770000      -1.00706000       1.01608000       0.12996598       0.36049745       0.75336732       0.23232745       0.63698478       0.32702026       0.98747731       0.99208585       0.14661627       0.19089037
Si       6.81293000       4.10475000       4.00463000       0.23688500       0.13284600       1.66695000       0.96581942       0.96143116       0.66239211       0.11911273       0.41942302       0.63877483       0.23175183       0.22440386       0.47333157       0.43347295
Si       9.54626000       1.42733000       4.04003000      -0.23466700       1.87762000       0.63865900       0.50918126       0.11245068       0.44026984       0.05495287       0.10626636       0.13983551       0.61397557       0.99378276       0.83175466       0.04957185
Si      10.90140000       5.55753000      -0.15247500      -0.17164000      -2.45179000       0.73890100       0.80088719       0.77818274       0.79140865       0.75096909       0.07842769       0.80402231       0.67288049       0.91582452       0.61569172       0.43042497
Si       2.55021000       8.11151000       0.02727890       2.30643000      -0.00093342      -0.13939800       0.11859864       0.64896005       0.68967388       0.72459065       0.11311913       0.03564093       0.38146628       0.85225080       0.34296505       0.10002668
Si      -0.21588900       8.23091000       2.72362000       2.88623000      -2.02879000       1.60035000       0.79465773       0.65873031       0.17924878       0.20539624       0.60849051       0.63983549       0.72591041       0.33604951       0.65773300       0.09668128
Si       2.64160000       5.51165000       2.66817000       0.87763900      -1.00594000       0.10098500       0.63096497       0.92456222       0.51274941       0.84501494       0.46325659       0.35652941       0.32500330       0.78811828       0.13166180       0.51326827
Si       1.21773000       6.78710000       1.36542000      -0.43645100       1.19262000       0.60941100       0.69898057       0.15359822       0.09501679       0.88462085       0.20495624       0.52385099       0.74449269       0.84131090       0.62534823       0.92453774
Si       3.96889000       9.48350000       1.42913000      -0.23480900      -1.13972000      -0.67085400       0.23086634       0.34431171       0.42827147       0.12154982       0.93277292       0.93127574       0.54593554       0.42084717       0.61336393       0.46707851
Si       1.28620000       9.56070000       4.07143000      -0.42557100       0.71337600      -0.08592310       0.61840455       0.81641458       0.36094414       0.11798300       0.68425605       0.61824549       0.95946196       0.71319476       0.37106688       0.39546903
Si       4.16746000       6.77009000       3.98760000      -1.52980000       1.12373000       0.12677100       0.34240398       0.88758324       0.37328246       0.82023559       0.10396025       0.21562296       0.49519486       0.04971834       0.79674845       0.54271493
Si       5.53249000       5.34289000       0.08094310       0.29759300       0.83694100      -2.48990000       0.09247001       0.25165523       0.84612700       0.72823666       0.21224772       0.56957503       0.43476021       0.54520722       0.88302294       0.45573199
Si       8.12186000       8.17121000      10.89250000       1.10983000      -1.53615000      -0.56450100       0.15640661       0.62734888       0.40525738       0.91892257       0.16713211       0.63830276       0.91992519       0.19563993       0.75219120       0.97514659
Si       5.50517000       8.22124000       2.66762000      -1.23109000      -0.36791100       0.75972400       0.36000491       0.48890388       0.25376425       0.30203229       0.58377139       0.90749868       0.91231593       0.93805751       0.80126542       0.44137374
Si       8.18650000       5.53225000       2.78107000      -1.22925000      -0.04413780      -1.03091000       0.77034364       0.19116110       0.41124283       0.02944764       0.17848073       0.04286625       0.00893634       0.50770690       0.58016862       0.21949826
Si       6.75104000       6.81651000       1.35396000       1.32017000      -0.13083600       0.55280900       0.50290458       0.07049360       0.22723729       0.29252602       0.90910196       0.85558870       0.88977340       0.69351508       0.46783505       0.09949205
Si       9.52788000       9.45856000       1.37394000      -2.04569000       2.11279000      -0.24219800       0.21809157       0.06662555       0.90904976       0.01100641       0.82252448       0.22451096       0.37590224       0.39262588       0.38759442       0.13418956
Si       6.68098000       9.51489000       4.20168000       2.35185000       0.00688967      -1.61716000       0.78012691       0.93532272       0.98247037       0.16509209       0.01260722       0.53331703       0.11024432       0.50312635       0.60500411       0.53368141
Si       9.41953000       6.85950000       4.17444000       0.77186800       0.05256020      -0.16010700       0.28619186       0.52482713       0.24515343       0.81177239       0.56464439       0.64648223       0.72064947       0.73449355       0.37637123       0.35458603
Si      10.76870000      11.07470000       5.44239000       1.77104000      -1.92579000       0.92671500       0.15642843       0.67363829       0.83183365       0.37844549       0.53671273       0.04883022       0.96158025       0.24987157       0.03015061       0.01798157
Si       2.63220000       2.75621000       5.35627000       1.21308000       0.34904600       0.33820000       0.73241301       0.33670668       0.82428027       0.65560028       0.82848552       0.72289089       0.09615908       0.55409401       0.74623447       0.00816650
Si      -0.06603530       2.60150000       8.15924000      -0.74221000       0.60858300       0.60486400       0.58790859       0.09360582       0.17763449       0.57062102       0.35544083       0.85453962       0.16899635       0.73687605       0.61201432       0.32834104
Si       2.79836000      -0.00300858       7.98361000       0.27554600       0.66109000       1.12231000       0.30955487       0.44734381       0.96705833       0.20803265       0.98663427       0.18438413       0.19036078       0.64609351       0.69739895       0.39807544
Si       1.39810000       1.51082000       6.80255000      -0.46567300      -1.88333000      -0.55146000       0.61179065       0.44387552       0.19302606       0.36530811       0.26964005       0.27809999       0.60880044       0.35406231       0.00801177       0.17792558
Si       4.08333000       3.99564000       6.79410000      -0.58414800       0.42847300      -0.41173900       0.02750616       0.08243932       0.75991297       0.63761415       0.09664280       0.12021146       0.67917931       0.78193081       0.56200856       0.64438914
Si       1.31246000       3.96491000       9.43482000      -0.57631300       1.30216000       0.18257000       0.38489067       0.81600045       0.34619717       0.24131566       0.35825240       0.46513754       0.11249867       0.52506534       0.58733585       0.19151955
Si       4.09923000       1.20933000       9.60951000      -0.22011000       1.30377000      -0.96435500       0.74986821       0.98669714       0.73829504       0.78740848       0.68126338       0.73490574       0.15652879       0.31262085       0.91998139       0.80802597
Si       5.41222000      10.85100000       5.42389000      -1.12753000      -0.32065400       2.28999000       0.31524099       0.40135014       0.50254651       0.82919397       0.15813305       0.13926658       0.87680223       0.64486080       0.04665654       0.61555308
Si       8.15585000       2.68126000       5.44615000      -0.50136800       0.21669800      -0.85126700       0.13070703       0.91672454       0.05166876       0.77736567       0.50764575       0.48474498       0.15154535       0.87273848       0.11277661       0.35625881
Si       5.47598000       2.62156000       8.11391000       0.14993100      -0.46337900       0.84299800       0.00518801       0.16659101       0.36615998       0.58198945       0.33391038       0.78943626       0.26777587       0.32536837       0.27021594       0.46345422
Si       8.18023000      -0.10513100       8.34939000       0.78762400       1.48734000       0.30832900       0.30449668       0.26743930       0.92590784       0.84163659       0.93919800       0.25790535       0.77580382       0.94591799       0.57909415       0.00323231
Si       6.90855000       1.19762000       6.83369000      -0.72389000       0.76161200      -0.01515310       0.26208037       0.04229665       0.81151796       0.09037843       0.88643399       0.89407158       0.69618948       0.34259224       0.06911630       0.30539566
Si       9.54256000       4.07632000       6.65520000      -0.24471400      -0.40620700       2.00334000       0.46844362       0.99953669       0.71411828       0.61612881       0.34013965       0.08188083       0.54761360       0.79254289       0.54140169       0.02983820
Si       6.94183000       4.03900000       9.39056000      -1.50425000      -0.57891600       1.08366000       0.91811279       0.64704442       0.22011034       0.80988212       0.95557073       0.51504837       0.66510331       0.87595594       0.03677443       0.65761202
Si       9.68904000       1.16969000       9.85295000      -1.19217000       0.76966100      -2.81954000       0.35818357       0.48676003       0.71692191       0.04229758       0.31703945       0.54202959       0.92582910       0.33201169       0.17845989       0.31542836
Si      10.87180000       5.49210000       5.44011000       0.73991800       0.29393200      -0.91126600       0.01658877       0.87713534       0.77205600       0.72712222       0.87824505       0.39970397       0.09106206       0.01017434       0.91782408       0.30413139
Si       2.71997000       8.17989000       5.38851000       0.74701600      -0.48293400      -1.73435000       0.23328911       0.50345014       0.52769228       0.93697522       0.54960528       0.59006046       0.74726519       0.94419105       0.46207158       0.87707444
Si      10.92550000       8.21827000       7.94377000      -0.46897000      -0.16940600       2.81907000       0.70329305       0.38214248       0.43132895       0.36747459       0.12642127       0.19465162       0.50363694       0.59778071       0.96071878       0.17334414
Si       2.64014000       5.36122000       8.12273000       1.30586000       1.10687000       0.00607545       0.97250882       0.97161340       0.28683254       0.26526242       0.67094190       0.77124771       0.79925772       0.28760748       0.14618260       0.85196475
Si       1.43240000       6.93422000       6.72313000      -0.39966100      -2.65264000       0.01080110       0.11202628       0.29536682       0.49077343       0.78921277       0.36079513       0.63543099       0.22049672       0.05920032       0.36509035       0.58732138
Si       4.06433000       9.27555000       6.86101000       0.14187800       3.48845000      -2.17934000       0.85718616       0.68835238       0.65392190       0.34474253       0.87944681       0.67744513       0.37262986       0.02825741       0.65850833       0.14662802
Si       1.54028000       9.50454000       9.35711000      -1.90858000      -0.48631200       0.03181180       0.47829843       0.37692650       0.68012155       0.57511485       0.04774559       0.13415871       0.24013110       0.42169199       0.36258089       0.31613481
Si       4.12404000       6.77901000       9.56222000      -0.76338200      -0.56558400      -0.11836600       0.33488136       0.24474983       0.23272256       0.81761066       0.07089084       0.62219834       0.59204465       0.50495479       0.20117692       0.91713827
Si       5.36622000       5.42916000       5.40708000       1.16024000      -0.57545700       0.20906000       0.40005293       0.16840628       0.94490970       0.96220709       0.53774167       0.03768551       0.64342601       0.86650667       0.19163329       0.38653012
Si       8.09118000       8.17655000       5.51354000       0.26540500       1.04498000       0.03928030       0.31177354       0.61530426       0.35707357       0.68435027       0.65155527       0.71070009       0.35934960       0.27700095       0.36904987       0.22187742
Si       5.45909000       8.23866000       8.18581000       0.54327800      -2.99184000       0.76320100       0.09197021       0.23922661       0.63409243       0.93709421       0.95219300       0.42840645       0.60841624       0.76255980       0.24605852       0.34810815
Si       8.17974000       5.45398000       8.05893000       0.27911000      -0.25099000      -0.72722500       0.42835742       0.88850032       0.13240861       0.12587253       0.44214030       0.62424563       0.64383357       0.85113239       0.08341764       0.32291845
Si       6.75226000       6.82432000       6.75195000      -0.54866000      -0.52900000       0.95474100       0.06394130       0.56091103       0.07745420       0.00322071       0.75865710       0.50540499       0.39891382       0.82104722       0.53628598       0.95569310
Si       9.47495000       9.60175000       6.86423000       0.01394010      -0.08799810      -1.63896000       0.66205090       0.03651962       0.00349350       0.67178964       0.60506197       0.95547988       0.82831623       0.58026946       0.25029794       0.49567003
Si       6.78552000       9.45079000       9.57819000      -0.25100500       0.27457200       0.22036600       0.67925666       0.28058108       0.35069389       0.91527166       0.93147523       0.79278266       0.55205619       0.44368038       0.41384253       0.40049655
Si       9.54394000       6.74259000       9.42210000      -0.65143600       2.91237000      -0.90527300       0.03827679       0.43423272       0.75177708       0.62363751       0.14727456       0.46147952       0.56479441       0.79997083       0.64366977       0.55481336
64
Lattice="10.862 0.0 0.0 0.0 10.862 0.0 0.0 0.0 10.862" Properties=species:S:1:pos:R:3:force:R:3:descriptors:R:10 PBC="1 1 1" Energy=-264.67225 pbc="T T T"
Si      10.72310000       0.28177000      10.78030000      -0.93634400      -0.57448200      -0.39052800       0.22637345       0.21531304       0.93291513       0.76778374       0.78958287       0.77498654       0.40827714       0.10302975       0.31661153       0.35591071
Si       2.70350000       2.70680000       0.03685430      -0.06544660      -0.32036800      -0.70712300       0.25558067       0.93860276       0.74766084       0.89695414       0.19600005       0.40597351       0.71736498       0.26654664       0.94287502       0.69328757
Si       0.09584860       2.59830000       2.81112000      -0.79358900       0.56652900       0.63834000       0.13754363       0.04577448       0.19465039       0.32453080       0.62750106       0.30563967       0.90727590       0.97768916       0.87347608       0.55942700
Si       2.81072000      10.83850000       2.66985000      -0.16164200      -0.61906100      -0.45518700       0.61888006       0.51721226       0.13079114       0.82643865       0.85534191       0.90445921       0.40763427       0.11984975       0.20675990       0.49019610
Si       1.32945000       1.32505000       1.37813000       1.04399000       0.05741660      -0.24365800       0.64575156       0.98997004       0.28832905       0.99682701       0.53976258       0.59023674       0.93786650       0.17302610       0.25204140       0.98249523
Si       4.01037000       4.11597000       1.34974000       0.83703600      -0.42630200       0.05162630       0.61724805       0.35373931       0.51684986       0.43409943       0.20479870       0.99610333       0.74535013       0.67210470       0.30430947       0.82635907
Si       1.39045000       4.02570000       4.15255000       0.49883400      -0.45572800       0.42225100       0.80116730       0.99115742       0.36862010       0.79667477       0.82557527       0.85630936       0.29372484       0.60673014       0.87188600       0.71774440
Si       4.18430000       1.38854000       3.94094000      -1.31846000      -0.77385800       1.56680000       0.01713028       0.02350157       0.78218314       0.66030143       0.82108158       0.71592025       0.29356884       0.14123005       0.98200325       0.25792878
Si       5.48617000       0.01030720      10.79610000      -1.53005000       0.57165100      -1.28519000       0.34280476       0.56445478       0.84664417       0.36265250       0.16455362       0.27242415       0.18802791       0.70772163       0.96181522       0.79169313
Si       8.18336000       2.80209000      10.89930000       0.20332500      -0.82936900      -0.16243600       0.82292672       0.00908256       0.40708375       0.54187520       0.09532941       0.25256595       0.66492426       0.13366365       0.03864812       0.82354463
Si       5.42597000       2.71828000       2.61261000       1.24511000       0.71095100      -0.15598600       0.47326171       0.72792439       0.81831518       0.35025041       0.18769758       0.47064046       0.06923850       0.55454210       0.68616566       0.97202918
Si       8.13817000      -0.13108200       2.48971000       0.64682900       1.56471000       1.77658000       0.75846296       0.87656800       0.50977696       0.67433572       0.71610444       0.22052759       0.16253998       0.78766775       0.91377867       0.32841181
Si       6.77832000       1.31033000       1.25171000       0.64898100       1.07040000       0.51351600       0.37243830       0.45444077       0.19924377       0.86313066       0.47487548       0.13951149       0.34151374       0.08481248       0.55703466       0.56568430
Si       9.62247000       4.02015000       1.54049000      -1.05453000      -1.15363000      -0.44997900       0.00445088       0.69086669       0.18603328       0.80952418       0.49943057       0.90313026       0.94983009       0.73258537       0.43585831       0.16587958
Si       6.85162000       4.05940000       4.03820000      -1.54264000       0.41607100      -0.44654600       0.16992421       0.98676166       0.21385045       0.95928710       0.40436927       0.95186385       0.50382834       0.73316244       0.56355446       0.71892825
Si       9.42440000       1.34418000       4.11135000       0.74873700      -1.26424000      -0.14552300       0.67264169       0.07953463       0.60620458       0.61530311       0.12120220       0.91476909       0.31886451       0.61214224       0.30921722       0.65057745
Si      10.94380000       5.19996000       0.16897500      -0.64973600       3.09573000      -0.64255300       0.71148766       0.18808934       0.58584158       0.34650365       0.38213602       0.60269921       0.32378918       0.42426798       0.75237009       0.80711323
Si       2.73899000       8.25597000      -0.04287800      -0.95521000      -0.63648400       0.21318000       0.96131808       0.88852288       0.60512797       0.44307592       0.98174683       0.57102877       0.45379216       0.32573514       0.17879244       0.78639162
Si       0.05888120       7.96576000       2.71954000      -0.12204000       1.41139000      -1.21423000       0.13749686       0.72939807       0.61285325       0.63239305       0.94245698       0.82062893       0.55424948       0.29978078       0.74787576       0.24505311
Si       2.79085000       5.40837000       2.84196000      -0.40319000       0.24342400      -0.07670460       0.07370165       0.89910472       0.62979612       0.56504866       0.65634240       0.01632623       0.10935234       0.10705610       0.09619539       0.48413303
Si       1.54635000       6.67188000       1.30596000      -0.92789000       0.60039000       0.77171700       0.27721703       0.61192882       0.96263199       0.02109966       0.21631016       0.78027052       0.34389005       0.18861221       0.05534618       0.75786503
Si       4.21862000       9.42977000       1.27574000      -1.41979000       1.86682000      -0.00100439       0.45431828       0.56951762       0.45750000       0.34567400       0.31797326       0.96213029       0.64553372       0.96678357       0.03735712       0.16594016
Si       1.41592000       9.47354000       4.05934000      -0.31219700       0.00233634       0.24443000       0.33376479       0.85061356       0.90006559       0.82763336       0.18459073       0.66104835       0.42283974       0.21089778       0.41670936       0.38910164
Si       4.02327000       6.89928000       4.18971000       1.66373000      -1.20328000      -1.50335000       0.25992067       0.24168476       0.42453869       0.94980897       0.80212679       0.62819869       0.37067809       0.20735146       0.28023712       0.27303019
Si       5.39580000       5.40466000      -0.05102410      -1.28068000       1.70511000       1.28178000       0.32377815       0.11161629       0.02241105       0.18104971       0.39265905       0.34144593       0.39788624       0.82994657       0.99324776       0.50150373
Si       8.00113000       8.15082000      10.91740000       0.90020800      -0.38255600      -0.45150900       0.82973346       0.10493769       0.19459267       0.57419808       0.45904181       0.56728937       0.59762872       0.00403449       0.57919762       0.26170695
Si       5.40033000       8.15148000       2.67308000       0.44271800      -0.95215500       1.35331000       0.42494365       0.91494822       0.09272429       0.46198993       0.34523509       0.00820488       0.33402014       0.61671083       0.07694566       0.53505134
Si       8.18194000       5.38471000       2.73789000      -0.43301100       0.06148730      -0.74666700       0.02486369       0.05848113       0.47085038       0.73372619       0.61434658       0.34170269       0.22819361       0.03517105       0.15239035       0.70717346
Si       6.74064000       6.74544000       1.40922000      -0.06651440      -0.58328200      -0.30357800       0.86450665       0.58785013       0.99985845       0.76052626       0.56132961       0.84348697       0.74371795       0.40304471       0.39702992       0.55173853
Si       9.52965000       9.48198000       1.15533000       1.19953000      -0.66803900       1.38314000       0.84248872       0.21933628       0.19191976       0.67371917       0.71451382       0.81634831       0.81865067       0.96312932       0.76204220       0.43033736
Si       6.85931000       9.45652000       3.95447000      -2.40306000       1.72104000       0.09248890       0.06038350       0.75439553       0.04325313       0.95029251       0.44325273       0.71426922       0.81285492       0.58806958       0.64036363       0.37775478
Si       9.49743000       6.64693000       4.06567000       0.27945900       1.32633000       0.26842600       0.93796568       0.62411427       0.54262121       0.66018993       0.42372292       0.91800064       0.11116420       0.32785428       0.63248469       0.41502519
Si      10.96920000      10.84680000       5.57614000      -1.35440000      -0.27469500      -2.40054000       0.18152481       0.86073258       0.00599643       0.40714836       0.35708947       0.98963070       0.88317569       0.25437477       0.14262330       0.74498069
Si       2.79839000       2.58982000       5.50542000      -0.51691100       0.25594100      -1.77214000       0.45776312       0.51485305       0.92114797       0.37179533       0.69510172       0.38877381       0.54069316       0.23211798       0.61975828       0.22661217
Si       0.04355170       2.89707000       8.02261000       0.75519500      -2.11012000       1.22727000       0.63496810       0.39798511       0.93376973       0.18553856       0.75588095       0.95474156       0.27578957       0.81652438       0.94712829       0.81199424
Si       2.62139000      -0.11471100       8.22613000       0.97225000       0.71748700      -0.64424900       0.37989675       0.26730202       0.24683265       0.46398645       0.03131828       0.82232112       0.90287450       0.05699547       0.43116167       0.65037378
Si       1.42300000       1.31347000       6.86971000      -0.38301200       0.79591200       0.29408500       0.65795964       0.23729427       0.96681939       0.43420773       0.18608898       0.26976627       0.33572385       0.52042198       0.03520722       0.85808017
Si       4.01883000       4.07859000       6.69812000       1.80820000       0.65321100       0.49633300       0.01024273       0.61746912       0.67742695       0.10594622       0.82316297       0.43119124       0.46559101       0.76847707       0.00590620       0.75957724
Si       1.33003000       4.07506000       9.57259000       1.25042000      -0.65809400      -1.27884000       0.24235543       0.91351425       0.71025721       0.86714554       0.27047004       0.77240152       0.91684161       0.65634950       0.65879852       0.40349743
Si       4.03381000       1.44975000       9.32371000       0.19824000      -1.28766000       2.19713000       0.26943658       0.33821267       0.26686429       0.32993098       0.57705148       0.81535143       0.01764791       0.69964568       0.49508394       0.19585297
Si       5.36216000      10.88900000       5.47144000       2.96950000       0.93088300      -1.49107000       0.38682636       0.91012822       0.17372740       0.62152244       0.51797061       0.65121164       0.19146147       0.05130743       0.08123212       0.98310268
Si       8.16760000       2.87557000       5.43039000       0.60729400      -1.32567000       0.41608800       0.10875989       0.93500889       0.41834585       0.26147737       0.37499703       0.30149720       0.66542748       0.49800128       0.40061733       0.51841523
Si       5.45689000       2.82295000       8.13306000      -0.47236400       0.63611100      -0.08908010       0.77911721       0.44725915       0.73170734       0.50154209       0.48007777       0.29547878       0.51367208       0.29097994       0.51338787       0.76606452