64
Lattice="10.86199986 0.0 0.0 0.0 10.86199986 0.0 0.0 0.0 10.86199986" Properties=species:S:1:pos:R:3:atomic_forces_forces:R:3 co-id=CO_1219145046643346341 energy_energy=-9931.579751253748 energy_per_atom=F cauchy_stress_stress="_JSON [-0.018993008428015858, -0.0192510107178869, -0.01789581007785251, -0.0017729623549501412, 0.00025524781702544757, -0.0004866235360557094]" cauchy_stress_volume_normalized=F pbc="T T T"
Si      10.72309986       0.28177005      10.78030024      -0.74799896      -0.36138809      -0.28385210
Si       2.70349963       2.70679950       0.03685477      -0.09566484      -0.29545523      -0.53189131
Si       0.09584846       2.59830007       2.81112032      -0.66464405       0.38145709       0.68026839
Si       2.81071951      10.83849992       2.66985024      -0.24759466      -0.60071614      -0.35686063
Si       1.32945013       1.32504993       1.37813035       0.83694267      -0.16416339      -0.20800019
Si       4.01036983       4.11597019       1.34974034       0.61588128      -0.26090706       0.11522193
Si       1.39045003       4.02570046       4.15255015       0.34304841      -0.33154941       0.32682758
Si       4.18429978       1.38854049       3.94093993      -1.01765034      -0.61566762       1.21106955
Si       5.48617020       0.01030695      10.79610011      -1.15980047       0.46107002      -1.01380732
Si       8.18336009       2.80208966      10.89929997       0.17819493      -0.66208555      -0.22753697
Si       5.42596974       2.71827955       2.61260967       1.05647529       0.54424752      -0.19720695
Si       8.13816983      -0.13108153       2.48971049       0.47473286       1.06302312       1.44167359
Si       6.77832022       1.31032975       1.25170971       0.59463086       0.78340074       0.48962649
Si       9.62246971       4.02014997       1.54049010      -0.72816727      -0.97002889      -0.31645446
Si       6.85162025       4.05939981       4.03820045      -1.29717451       0.30328424      -0.34027393
Si       9.42440006       1.34418009       4.11134950       0.55018111      -0.86429638      -0.07371996
Si      10.94379941       5.19995976       0.16897470      -0.47728416       2.43486169      -0.45423037
Si       2.73899013       8.25597039      -0.04287774      -0.87087069      -0.49786045       0.15124232
Si       0.05888073       7.96575948       2.71953954       0.10672829       1.06656018      -0.90154241
Si       2.79084966       5.40837004       2.84195971      -0.24418795       0.16008562       0.01211144
Si       1.54635014       6.67188023       1.30595997      -0.62606876       0.50704597       0.63984833
Si       4.21862044       9.42977023       1.27573971      -1.02889738       1.38336072      -0.13960525
Si       1.41592034       9.47353975       4.05934007      -0.26474109       0.02594834       0.17093285
Si       4.02326954       6.89927945       4.18971014       1.28316894      -0.96801443      -1.16484523
Si       5.39579945       5.40465958      -0.05102424      -1.14484256       1.48961875       1.02368010
Si       8.00112941       8.15081971      10.91739932       0.73322771      -0.29509091      -0.29568098
Si       5.40032999       8.15148012       2.67307951       0.30129807      -0.82685624       1.21841082
Si       8.18194043       5.38471043       2.73788981      -0.33526388       0.01152960      -0.75736317
Si       6.74063994       6.74543986       1.40921957      -0.07887322      -0.42542270      -0.17530193
Si       9.52964958       9.48197952       1.15533010       0.77368402      -0.30901806       1.00782667
Si       6.85930946       9.45652008       3.95446963      -1.75567805       1.34992763      -0.02683538
Si       9.49742963       6.64693021       4.06567044       0.26445442       1.16724021       0.16953726
Si      10.96920020      10.84679958       5.57614014      -1.13478672      -0.30836346      -1.76450542
Si       2.79839006       2.58982011       5.50541984      -0.37342779       0.07206108      -1.36814956
Si       0.04355119       2.89707024       8.02261010       0.79441586      -1.70660109       0.99404170
Si       2.62138943      -0.11471141       8.22613030       0.77656391       0.44046057      -0.35924585
Si       1.42300019       1.31346995       6.86970983      -0.20727231       0.58243406       0.17468589
Si       4.01883024       4.07858971       6.69811956       1.46993542       0.44855826       0.33555082
Si       1.33003016       4.07505956       9.57259032       0.95974833      -0.50982893      -1.03065498
Si       4.03381003       1.44975004       9.32371041       0.01494942      -1.02761825       1.57738105
Si       5.36215983      10.88899953       5.47144024       1.98977057       1.00915696      -1.21568854
Si       8.16760042       2.87557000       5.43038949       0.54580689      -1.12977590       0.31078235
Si       5.45688951       2.82295013       8.13306034      -0.34474097       0.43970723       0.03494978
Si       8.15402943      -0.01542404       7.98942017      -0.47222063      -0.30929548      -0.07310161
Si       6.84906986       1.56079986       6.82744036      -0.70250123      -1.54933314      -0.89439577
Si       9.47649964       4.12875042       6.90167995      -0.90333627       1.39680681      -1.19278592
Si       6.74227033       4.10349953       9.63490996       0.40819219      -0.56844314      -0.90246904
Si       9.34210955       1.54364008       9.15480957       1.03002378       0.15012106       1.92415318
Si      10.85619955       5.40148027       5.46999016      -0.55047062      -0.39296175      -0.09348788
Si       2.73447045       8.14030964       5.50847966      -1.66278384       0.11733692       0.60646564
Si      10.81569950       8.11897993       8.42668953      -0.63867771      -0.36226124      -2.16351595
Si       2.68773018       5.39229971       8.06991954       0.02414420      -0.05542887       1.13779080
Si       1.24214029       6.67989964       6.87425014       0.55749101       1.94405841       0.19673824
Si       4.07078970       9.55065994       6.72552004      -0.42156193      -0.62306469       1.52427054
Si       1.14879009       9.62774973       9.63678040       1.32678410      -0.28643838       0.18778695
Si       3.99229981       6.84900034       9.45768014       0.52723016      -0.38194560      -0.50118077
Si       5.51341970       5.49091038       5.38981014      -0.75858933      -0.30120679       0.32472622
Si       8.05812015       8.12280010       5.23923024       1.13357213      -1.31558567       1.90562916
Si       5.45760966       8.18017970       8.13614950      -0.82640089       0.61704959       0.23861380
Si       8.03430956       5.47624994       8.28201964       1.38366179      -0.11886518       0.20427132
Si       6.75876971       6.79626967       6.90235991       0.54539243       0.19299832      -1.59849186
Si       9.47323018       9.40653967       6.66946017       0.53354504      -0.26008817       0.92335874
Si       6.82426974       9.54338023       9.48645032       0.00466809      -0.03526397      -0.65187158
Si       9.48908978       6.75633010       9.73882997      -0.35637110      -0.85252047       0.01508081
