64
Lattice="10.862 0.0 0.0 0.0 10.862 0.0 0.0 0.0 10.862" Properties=species:S:1:pos:R:3:atomic_forces_forces:R:3 co-id=CO_1648707025327346774 energy_energy=-341.84757 energy_per_atom=F cauchy_stress_stress="_JSON [0.013768985712065137, 0.01241352965821532, 0.013696560488470212, -0.004852982748005406, 0.004566582675726933, -0.00040317752213701505]" cauchy_stress_volume_normalized=F pbc="T T T"
Si       0.21490000      10.62570000       0.11320000      -0.13884500      -0.16277200      -0.64989300
Si       2.63813000       2.76067000      10.84980000       1.31546000      -0.54810300       0.13470500
Si      10.76400000       2.79426000       2.61849000       0.04926780       0.09635330      -0.90822000
Si       2.65653000       0.06550000       2.62646000       0.26553000      -0.16337900       1.58533000
Si       1.33535000       1.34158000       1.27880000      -0.17426400       1.16263000       0.66023700
Si       4.12469000       4.13377000       1.32433000      -1.36674000      -0.63405100       0.48975500
Si       1.29302000       4.05539000       3.98890000      -0.02776620       0.85138000       0.08975980
Si       4.08284000       1.38825000       4.12412000      -0.27885700       0.15987600      -0.96414100
Si       5.40450000      10.66570000       0.11050000       0.30032800       1.04086000      -0.04204320
Si       8.15848000       2.63210000       0.02680000      -0.20577200      -0.19819500       0.14905000
Si       5.45879000       2.80457000       2.71353000      -0.21378400      -1.30741000      -0.24303000
Si       8.25058000       0.08223370       2.91139000      -1.24764000      -2.04948000      -1.28239000
Si       6.81407000       1.18082000       1.48010000      -0.36258500       1.17927000      -0.58111100
Si       9.34493000       4.28442000       1.18037000       1.09438000      -0.74290700       0.72501500
Si       6.81293000       4.10475000       4.00463000       0.13710100       0.07890120       1.09877000
Si       9.54626000       1.42733000       4.04003000       0.02609930       1.27176000       0.25841100
Si       0.03940000       5.55753000      10.70950000      -0.00486434      -1.55393000       0.55112400
Si       2.55021000       8.11151000       0.02727890       1.49403000      -0.08171480      -0.12734500
Si      10.64610000       8.23091000       2.72362000       2.08491000      -1.44661000       1.34900000
Si       2.64160000       5.51165000       2.66817000       0.60108400      -0.68236300       0.14069300
Si       1.21773000       6.78710000       1.36542000      -0.07453650       0.64193400       0.49720800
Si       3.96889000       9.48350000       1.42913000      -0.18471500      -0.70843800      -0.34831200
Si       1.28620000       9.56070000       4.07143000      -0.14475000       0.33525600       0.02442080
Si       4.16746000       6.77009000       3.98760000      -1.06701000       0.65680900       0.02860450
Si       5.53249000       5.34289000       0.08094310       0.24513800       0.55724800      -1.77741000
Si       8.12186000       8.17121000       0.03050000       0.78647300      -0.85785600      -0.31637700
Si       5.50517000       8.22124000       2.66762000      -0.65871300      -0.23670900       0.52512700
Si       8.18650000       5.53225000       2.78107000      -0.61473300      -0.24047400      -0.67010900
Si       6.75104000       6.81651000       1.35396000       0.78923200      -0.15032000       0.24067400
Si       9.52788000       9.45856000       1.37394000      -1.42135000       1.32160000      -0.52519100
Si       6.68098000       9.51489000       4.20168000       1.49228000      -0.08051720      -1.13910000
Si       9.41953000       6.85950000       4.17444000       0.67528600      -0.02490180      -0.07565920
Si      10.76870000       0.21270000       5.44239000       1.24156000      -1.49704000       0.81115500
Si       2.63220000       2.75621000       5.35627000       0.88852500       0.21747100       0.10486600
Si      10.79600000       2.60150000       8.15924000      -0.60058600       0.33158800       0.49682500
Si       2.79836000      10.85900000       7.98361000       0.07222070       0.58032200       0.68602100
Si       1.39810000       1.51082000       6.80255000      -0.18515300      -1.32987000      -0.20759300
Si       4.08333000       3.99564000       6.79410000      -0.25327700       0.34631500      -0.13466100
Si       1.31246000       3.96491000       9.43482000      -0.33768300       0.91236000       0.09694180
Si       4.09923000       1.20933000       9.60951000      -0.17902700       1.00112000      -0.66354800
Si       5.41222000      10.85100000       5.42389000      -0.75855300       0.18595300       1.35123000
Si       8.15585000       2.68126000       5.44615000      -0.40773100       0.09666100      -0.30276300
Si       5.47598000       2.62156000       8.11391000       0.10850200      -0.25987500       0.59262400
Si       8.18023000      10.75690000       8.34939000       0.51791800       1.11087000      -0.04436930
Si       6.90855000       1.19762000       6.83369000      -0.55491000       0.65593100      -0.01201740
Si       9.54256000       4.07632000       6.65520000      -0.23148500      -0.23821300       1.25368000
Si       6.94183000       4.03900000       9.39056000      -1.07929000      -0.36531200       0.87804100
Si       9.68904000       1.16969000       9.85295000      -1.08103000       0.84002100      -1.96677000
Si       0.00980000       5.49210000       5.44011000       0.53223800       0.10549800      -0.50398100
Si       2.71997000       8.17989000       5.38851000       0.48253600      -0.11907400      -1.29204000
Si       0.06350000       8.21827000       7.94377000      -0.42063600      -0.11381300       1.81839000
Si       2.64014000       5.36122000       8.12273000       0.86010500       0.76360800      -0.04257560
Si       1.43240000       6.93422000       6.72313000      -0.24158300      -1.98913000       0.18611600
Si       4.06433000       9.27555000       6.86101000      -0.13352400       2.07664000      -1.38098000
Si       1.54028000       9.50454000       9.35711000      -1.10283000      -0.20078800       0.11690900
Si       4.12404000       6.77901000       9.56222000      -0.61021200      -0.34871600      -0.16540700
Si       5.36622000       5.42916000       5.40708000       0.66738500      -0.44398800       0.26384300
Si       8.09118000       8.17655000       5.51354000       0.27899900       0.72135800      -0.10568800
Si       5.45909000       8.23866000       8.18581000       0.35687700      -1.86288000       0.60235700
Si       8.17974000       5.45398000       8.05893000       0.11001000      -0.13496200      -0.37764900
Si       6.75226000       6.82432000       6.75195000      -0.44886100      -0.53915400       0.65007200
Si       9.47495000       9.60175000       6.86423000       0.11717300       0.00950859      -1.04969000
Si       6.78552000       9.45079000       9.57819000      -0.20497100       0.22911300       0.06315420
Si       9.54394000       6.74259000       9.42210000      -0.57237600       1.77471000      -0.62005300
