64
Lattice="10.862 0.0 0.0 0.0 10.862 0.0 0.0 0.0 10.862" Properties=species:S:1:pos:R:3:atomic_forces_forces:R:3:kliff_descriptor_symmetry_function_descriptors:R:51 energy_energy=-264.67225 energy_per_atom=F kliff_descriptor_symmetry_function_cut_name=cos kliff_descriptor_symmetry_function_cut_dists="{\"Si-Si\": 4.0}" kliff_descriptor_symmetry_function_hyperparams=set51 pbc="T T T"
Si      10.72310000       0.28177000      10.78030000      -0.93634400      -0.57448200      -0.39052800       1.48477593       1.22403419       0.99113263       0.72593928       0.43601567       0.19533558       0.02689881       0.00053139       0.01387860       0.02874807       0.00689734       0.02176681       0.01085254       0.02232118       0.00539987       0.01686851       0.00710386       0.01443290       0.00354184       0.01087088       0.00392738       0.00784270       0.00196362       0.00587894       0.00064241       0.00405956       0.00000164       0.00104062       0.00168621       0.00328473       0.00084640       0.00244492       0.00027587       0.00167538       0.00000068       0.00042797       0.00031206       0.00057829       0.00015783       0.00042406       0.00005108       0.00028581       0.00000012       0.00007246       0.00001649       0.00002800       0.00000844       0.00001996       0.00000270       0.00001301       0.00000325
Si       2.70350000       2.70680000       0.03685430      -0.06544660      -0.32036800      -0.70712300       1.47385853       1.21855461       0.98927318       0.72667034       0.43761588       0.19614310       0.02674013       0.00050325       0.00590674       0.01939951       0.00281693       0.01630970       0.00454494       0.01499057       0.00216335       0.01260898       0.00289306       0.00961347       0.00137243       0.00809284       0.00153768       0.00516433       0.00072588       0.00435253       0.00028670       0.00341316       0.00000173       0.00100260       0.00062377       0.00212803       0.00029230       0.00179656       0.00011519       0.00141015       0.00000069       0.00041401       0.00010289       0.00036274       0.00004745       0.00030729       0.00001861       0.00024166       0.00000011       0.00007087       0.00000443       0.00001660       0.00000198       0.00001415       0.00000077       0.00001117       0.00000327
Si       0.09584860       2.59830000       2.81112000      -0.79358900       0.56652900       0.63834000       1.51488274       1.26031883       1.03006884       0.76399654       0.46721252       0.21435775       0.03091900       0.00065173       0.00919622       0.01907855       0.00505714       0.01493947       0.00710528       0.01472176       0.00390835       0.01152483       0.00455482       0.00941723       0.00250654       0.00736895       0.00244455       0.00503999       0.00134601       0.00394144       0.00054529       0.00294104       0.00000333       0.00085758       0.00100521       0.00206483       0.00055389       0.00161351       0.00022424       0.00120344       0.00000136       0.00035129       0.00017018       0.00034739       0.00009388       0.00027109       0.00003796       0.00020204       0.00000023       0.00005910       0.00000763       0.00001546       0.00000421       0.00001204       0.00000170       0.00000897       0.00000263
Si       2.81072000      10.83850000       2.66985000      -0.16164200      -0.61906100      -0.45518700       1.42583108       1.17606865       0.95197033       0.69584128       0.41526755       0.18322663       0.02397224       0.00041527       0.00348388       0.01487844       0.00147965       0.01287421       0.00266694       0.01144004       0.00112969       0.00990279       0.00168255       0.00727255       0.00070944       0.00629944       0.00088307       0.00385761       0.00036992       0.00334446       0.00014338       0.00268238       0.00000090       0.00082610       0.00035172       0.00155979       0.00014594       0.00135401       0.00005641       0.00108682       0.00000035       0.00033495       0.00005586       0.00025526       0.00002273       0.00022212       0.00000873       0.00017856       0.00000005       0.00005511       0.00000224       0.00001078       0.00000088       0.00000942       0.00000033       0.00000759       0.00000235
Si       1.32945000       1.32505000       1.37813000       1.04399000       0.05741660      -0.24365800       1.50258875       1.25006289       1.02143089       0.75708212       0.46227691       0.21151158       0.03031857       0.00063382       0.00916314       0.01812598       0.00511982       0.01408266       0.00707751       0.01400098       0.00395432       0.01087779       0.00453453       0.00897189       0.00253325       0.00697061       0.00243176       0.00481341       0.00135826       0.00373991       0.00055828       0.00278007       0.00000329       0.00079834       0.00099881       0.00197889       0.00055768       0.00153776       0.00022920       0.00114302       0.00000135       0.00032775       0.00016869       0.00033525       0.00009409       0.00026064       0.00003866       0.00019374       0.00000023       0.00005538       0.00000753       0.00001510       0.00000419       0.00001176       0.00000172       0.00000875       0.00000249
Si       4.01037000       4.11597000       1.34974000       0.83703600      -0.42630200       0.05162630       1.51608612       1.25765895       1.02480191       0.75695421       0.46010049       0.20931384       0.02960066       0.00059635       0.00803521       0.02155325       0.00408513       0.01760317       0.00619674       0.01669720       0.00314428       0.01364473       0.00395993       0.01075479       0.00200235       0.00879721       0.00211618       0.00581266       0.00106468       0.00476116       0.00042995       0.00363217       0.00000284       0.00099259       0.00086508       0.00241588       0.00043196       0.00198276       0.00017396       0.00151348       0.00000115       0.00041173       0.00014487       0.00041881       0.00007117       0.00034511       0.00002849       0.00026373       0.00000019       0.00007108       0.00000640       0.00001972       0.00000304       0.00001636       0.00000120       0.00001253       0.00000332
Si       1.39045000       4.02570000       4.15255000       0.49883400      -0.45572800       0.42225100       1.45230878       1.19972451       0.97290806       0.71327388       0.42795856       0.19054060       0.02550989       0.00046198       0.00428037       0.01657538       0.00191732       0.01421234       0.00327943       0.01276258       0.00146477       0.01094792       0.00207209       0.00813346       0.00092087       0.00698225       0.00108989       0.00433000       0.00048089       0.00372100       0.00019154       0.00296125       0.00000134       0.00088992       0.00043553       0.00176049       0.00019014       0.00151510       0.00007550       0.00120650       0.00000053       0.00036201       0.00006968       0.00029163       0.00002975       0.00025170       0.00001173       0.00020067       0.00000008       0.00006002       0.00000284       0.00001262       0.00000116       0.00001095       0.00000045       0.00000874       0.00000260
Si       4.18430000       1.38854000       3.94094000      -1.31846000      -0.77385800       1.56680000       1.48427672       1.23556714       1.01002683       0.74886522       0.45724480       0.20909394       0.02998096       0.00063649       0.00765786       0.01499701       0.00415669       0.01149584       0.00590642       0.01154243       0.00320664       0.00884265       0.00377500       0.00735041       0.00205015       0.00562557       0.00201761       0.00390895       0.00109622       0.00298756       0.00042388       0.00216623       0.00000261       0.00061447       0.00082478       0.00158681       0.00044838       0.00121041       0.00017304       0.00087602       0.00000106       0.00024828       0.00013802       0.00026200       0.00007511       0.00019908       0.00002887       0.00014355       0.00000017       0.00004061       0.00000607       0.00001127       0.00000331       0.00000851       0.00000126       0.00000610       0.00000172
Si       5.48617000       0.01030720      10.79610000      -1.53005000       0.57165100      -1.28519000       1.48937646       1.23490202       1.00602587       0.74319469       0.45233195       0.20671426       0.02993586       0.00066158       0.00859165       0.02032918       0.00464827       0.01638580       0.00665538       0.01569654       0.00360392       0.01264508       0.00428566       0.01005188       0.00232419       0.00809041       0.00231480       0.00538829       0.00125789       0.00433138       0.00052636       0.00330684       0.00000359       0.00097148       0.00096066       0.00221281       0.00052346       0.00177562       0.00021917       0.00135397       0.00000150       0.00039729       0.00016570       0.00037415       0.00009075       0.00029919       0.00003804       0.00022760       0.00000026       0.00006661       0.00000768       0.00001680       0.00000424       0.00001336       0.00000178       0.00001012       0.00000295
Si       8.18336000       2.80209000      10.89930000       0.20332500      -0.82936900      -0.16243600       1.45583346       1.19646860       0.96538486       0.70319936       0.41831896       0.18437194       0.02426796       0.00043185       0.00669255       0.02259926       0.00292877       0.01883548       0.00516536       0.01745147       0.00225965       0.01454577       0.00330512       0.01117680       0.00144498       0.00931666       0.00176922       0.00599071       0.00077281       0.00499430       0.00026811       0.00382255       0.00000088       0.00104351       0.00072475       0.00245875       0.00031617       0.00205017       0.00010957       0.00156927       0.00000036       0.00042822       0.00012173       0.00041464       0.00005296       0.00034587       0.00001832       0.00026479       0.00000006       0.00007220       0.00000538       0.00001846       0.00000233       0.00001541       0.00000080       0.00001180       0.00000322
Si       5.42597000       2.71828000       2.61261000       1.24511000       0.71095100      -0.15598600       1.47640107       1.22591521       0.99963261       0.73871849       0.44894654       0.20401320       0.02887630       0.00060169       0.00671481       0.01576171       0.00365928       0.01270618       0.00517783       0.01212924       0.00282312       0.00977454       0.00330792       0.00772161       0.00180516       0.00621885       0.00176685       0.00410382       0.00096537       0.00330234       0.00040400       0.00253318       0.00000271       0.00076985       0.00072155       0.00166389       0.00039493       0.00133727       0.00016530       0.00102494       0.00000111       0.00031130       0.00012047       0.00027374       0.00006617       0.00021944       0.00002770       0.00016790       0.00000018       0.00005094       0.00000527       0.00001166       0.00000291       0.00000930       0.00000122       0.00000710       0.00000215
Si       8.13817000      -0.13108200       2.48971000       0.64682900       1.56471000       1.77658000       1.47385254       1.21613701       0.98552328       0.72251472       0.43455173       0.19517278       0.02714379       0.00055101       0.00586810       0.02326439       0.00246046       0.01985674       0.00452565       0.01809441       0.00188693       0.01545569       0.00289284       0.01173497       0.00119428       0.01003640       0.00154720       0.00640385       0.00062972       0.00548636       0.00024165       0.00429047       0.00000208       0.00115275       0.00063376       0.00269859       0.00025256       0.00231739       0.00009628       0.00181420       0.00000083       0.00048617       0.00010687       0.00048090       0.00004073       0.00041476       0.00001529       0.00032531       0.00000013       0.00008671       0.00000482       0.00002375       0.00000168       0.00002062       0.00000061       0.00001621       0.00000428
Si       6.77832000       1.31033000       1.25171000       0.64898100       1.07040000       0.51351600       1.49988983       1.24738014       1.01892721       0.75497586       0.46084860       0.21085015       0.03028440       0.00064190       0.00795596       0.01783916       0.00435449       0.01423770       0.00614451       0.01377972       0.00336271       0.01099792       0.00393637       0.00883025       0.00215389       0.00704777       0.00211100       0.00473735       0.00115479       0.00378115       0.00047611       0.00287991       0.00000310       0.00087218       0.00086731       0.00194742       0.00047428       0.00155438       0.00019540       0.00118388       0.00000126       0.00035855       0.00014672       0.00032974       0.00008017       0.00026319       0.00003298       0.00020045       0.00000021       0.00006071       0.00000659       0.00001482       0.00000360       0.00001183       0.00000148       0.00000901       0.00000273
Si       9.62247000       4.02015000       1.54049000      -1.05453000      -1.15363000      -0.44997900       1.54548618       1.28430359       1.04899356       0.77806654       0.47679160       0.22016449       0.03253627       0.00073443       0.01143103       0.02594456       0.00614530       0.02065884       0.00886673       0.02012473       0.00476669       0.01602469       0.00572257       0.01298900       0.00307632       0.01034275       0.00310045       0.00703802       0.00166662       0.00560419       0.00067268       0.00423239       0.00000423       0.00123863       0.00129219       0.00293387       0.00069451       0.00233619       0.00028023       0.00176438       0.00000175       0.00051642       0.00022468       0.00051046       0.00012072       0.00040650       0.00004868       0.00030702       0.00000030       0.00008988       0.00001055       0.00002402       0.00000566       0.00001913       0.00000228       0.00001445       0.00000423
Si       6.85162000       4.05940000       4.03820000      -1.54264000       0.41607100      -0.44654600       1.51785867       1.26154211       1.03025708       0.76364266       0.46702702       0.21476192       0.03140413       0.00069828       0.00963615       0.02174417       0.00527652       0.01738454       0.00746945       0.01683644       0.00409125       0.01345824       0.00481548       0.01083357       0.00263887       0.00865695       0.00260536       0.00584550       0.00142869       0.00466883       0.00059376       0.00355639       0.00000380       0.00106426       0.00108399       0.00242248       0.00059500       0.00193350       0.00024730       0.00147215       0.00000158       0.00044051       0.00018802       0.00041674       0.00010341       0.00033213       0.00004299       0.00025264       0.00000027       0.00007558       0.00000882       0.00001924       0.00000487       0.00001529       0.00000202       0.00001161       0.00000347
Si       9.42440000       1.34418000       4.11135000       0.74873700      -1.26424000      -0.14552300       1.32624826       1.08419830       0.86889138       0.62571910       0.36445469       0.15498378       0.01870039       0.00028719       0.00281010       0.01308985       0.00106758       0.01134733       0.00214929       0.01005740       0.00081383       0.00872193       0.00135404       0.00638596       0.00050975       0.00554166       0.00070933       0.00338220       0.00026484       0.00293771       0.00009199       0.00233979       0.00000040       0.00068735       0.00028185       0.00136501       0.00010397       0.00118713       0.00003598       0.00094627       0.00000016       0.00027801       0.00004459       0.00022277       0.00001604       0.00019422       0.00000551       0.00015506       0.00000002       0.00004556       0.00000178       0.00000939       0.00000061       0.00000822       0.00000021       0.00000658       0.00000193
Si      10.94380000       5.19996000       0.16897500      -0.64973600       3.09573000      -0.64255300       1.53867378       1.27848037       1.04429333       0.77495696       0.47578899       0.22095751       0.03352059       0.00082602       0.00986248       0.02506198       0.00513721       0.02033671       0.00763050       0.01945270       0.00397025       0.01579245       0.00490355       0.01257006       0.00254653       0.01021303       0.00264135       0.00682321       0.00136802       0.00554987       0.00057142       0.00421358       0.00000570       0.00112591       0.00109228       0.00285240       0.00056351       0.00232364       0.00023522       0.00176555       0.00000235       0.00047109       0.00018729       0.00049960       0.00009586       0.00040818       0.00003995       0.00031060       0.00000040       0.00008263       0.00000863       0.00002385       0.00000435       0.00001958       0.00000181       0.00001493       0.00000395
Si       2.73899000       8.25597000      -0.04287800      -0.95521000      -0.63648400       0.21318000       1.48505396       1.22877146       0.99842061       0.73435939       0.44332287       0.19961383       0.02761016       0.00054017       0.00780644       0.02067833       0.00386034       0.01673223       0.00603922       0.01599867       0.00298577       0.01294522       0.00388005       0.01028052       0.00191752       0.00831799       0.00208898       0.00553639       0.00103178       0.00447920       0.00038686       0.00337018       0.00000176       0.00091008       0.00086291       0.00228795       0.00042584       0.00185089       0.00015945       0.00139221       0.00000072       0.00037543       0.00014744       0.00039133       0.00007263       0.00031652       0.00002713       0.00023795       0.00000012       0.00006398       0.00000672       0.00001788       0.00000330       0.00001446       0.00000123       0.00001086       0.00000291
Si       0.05888120       7.96576000       2.71954000      -0.12204000       1.41139000      -1.21423000       1.32608238       1.08560203       0.87123031       0.62853579       0.36699341       0.15653714       0.01898264       0.00029176       0.00132919       0.01109274       0.00020891       0.00997245       0.00101884       0.00851965       0.00015913       0.00765994       0.00064429       0.00540571       0.00009956       0.00486098       0.00033933       0.00285989       0.00005167       0.00257223       0.00000979       0.00209250       0.00000007       0.00061586       0.00013587       0.00115217       0.00002027       0.00103657       0.00000371       0.00084343       0.00000003       0.00024838       0.00002183       0.00018725       0.00000313       0.00016855       0.00000053       0.00013720       0.00000000       0.00004045       0.00000090       0.00000782       0.00000012       0.00000704       0.00000002       0.00000574       0.00000170
Si       2.79085000       5.40837000       2.84196000      -0.40319000       0.24342400      -0.07670460       1.48826394       1.23535966       1.00704309       0.74391286       0.45176681       0.20486894       0.02864587       0.00056324       0.00868159       0.01824776       0.00451995       0.01408612       0.00673963       0.01406911       0.00351246       0.01084193       0.00435696       0.00898724       0.00227468       0.00690496       0.00236721       0.00480086       0.00123892       0.00367256       0.00044639       0.00264374       0.00000180       0.00074389       0.00099155       0.00196196       0.00052078       0.00149118       0.00018685       0.00106686       0.00000073       0.00029950       0.00017475       0.00032870       0.00009243       0.00024638       0.00003290       0.00017392       0.00000012       0.00004858       0.00000849       0.00001457       0.00000455       0.00001063       0.00000160       0.00000730       0.00000202
Si       1.54635000       6.67188000       1.30596000      -0.92789000       0.60039000       0.77171700       1.46111503       1.20181887       0.97041970       0.70745396       0.42122814       0.18578453       0.02443148       0.00042884       0.00664372       0.02351929       0.00287211       0.01974768       0.00511919       0.01823939       0.00220474       0.01532495       0.00326675       0.01176961       0.00139765       0.00990051       0.00174266       0.00637765       0.00073850       0.00537349       0.00026274       0.00414258       0.00000104       0.00109615       0.00071086       0.00266068       0.00029700       0.00224683       0.00010513       0.00173410       0.00000041       0.00045760       0.00011869       0.00046478       0.00004811       0.00039420       0.00001684       0.00030489       0.00000007       0.00008001       0.00000523       0.00002218       0.00000200       0.00001894       0.00000068       0.00001470       0.00000382
Si       4.21862000       9.42977000       1.27574000      -1.41979000       1.86682000      -0.00100439       1.52698599       1.27103639       1.03963728       0.77229862       0.47396267       0.21912453       0.03248102       0.00074361       0.00915746       0.02112515       0.00500557       0.01697327       0.00706642       0.01635297       0.00385943       0.01314598       0.00451997       0.01051760       0.00246512       0.00846274       0.00241830       0.00567106       0.00131619       0.00456894       0.00055524       0.00349781       0.00000471       0.00103970       0.00098991       0.00234766       0.00053713       0.00189488       0.00022650       0.00145227       0.00000193       0.00043153       0.00016602       0.00040289       0.00008951       0.00032638       0.00003771       0.00025069       0.00000032       0.00007444       0.00000732       0.00001851       0.00000390       0.00001509       0.00000164       0.00001164       0.00000345
Si       1.41592000       9.47354000       4.05934000      -0.31219700       0.00233634       0.24443000       1.38217779       1.14025747       0.92238224       0.67275074       0.39925116       0.17417854       0.02207969       0.00035788       0.00278508       0.01074532       0.00121945       0.00917969       0.00213542       0.00829070       0.00093185       0.00708713       0.00135111       0.00530307       0.00058612       0.00453808       0.00071217       0.00283853       0.00030632       0.00243267       0.00011274       0.00193204       0.00000051       0.00058989       0.00028555       0.00116367       0.00012127       0.00099939       0.00004444       0.00079475       0.00000020       0.00024270       0.00004606       0.00019633       0.00001903       0.00016931       0.00000691       0.00013498       0.00000003       0.00004124       0.00000191       0.00000882       0.00000075       0.00000766       0.00000027       0.00000613       0.00000187
Si       4.02327000       6.89928000       4.18971000       1.66373000      -1.20328000      -1.50335000       1.50676131       1.25225216       1.02241864       0.75735905       0.46252749       0.21215292       0.03086614       0.00068797       0.00772808       0.01934764       0.00406152       0.01568108       0.00595087       0.01496261       0.00312316       0.01213491       0.00379278       0.00960889       0.00198565       0.00780176       0.00201927       0.00517184       0.00105336       0.00420593       0.00043362       0.00321299       0.00000350       0.00090984       0.00082096       0.00213695       0.00042594       0.00174193       0.00017513       0.00133246       0.00000142       0.00037687       0.00013594       0.00036621       0.00006969       0.00029996       0.00002858       0.00023009       0.00000023       0.00006493       0.00000588       0.00001691       0.00000294       0.00001398       0.00000120       0.00001077       0.00000303
Si       5.39580000       5.40466000      -0.05102410      -1.28068000       1.70511000       1.28178000       1.49952666       1.24420867       1.01430438       0.74995947       0.45697137       0.20913334       0.03040839       0.00068952       0.00768761       0.02039415       0.00404023       0.01674678       0.00593757       0.01576970       0.00311922       0.01295135       0.00380425       0.01012465       0.00199702       0.00831742       0.00204057       0.00544741       0.00106998       0.00447682       0.00044958       0.00346773       0.00000344       0.00102218       0.00083870       0.00224947       0.00043900       0.00184978       0.00018441       0.00143309       0.00000141       0.00042175       0.00014201       0.00038491       0.00007404       0.00031694       0.00003108       0.00024565       0.00000024       0.00007206       0.00000639       0.00001771       0.00000330       0.00001462       0.00000138       0.00001134       0.00000331
Si       8.00113000       8.15082000      10.91740000       0.90020800      -0.38255600      -0.45150900       1.55675317       1.29080633       1.05193166       0.77785827       0.47448068       0.21756772       0.03148709       0.00066554       0.01272237       0.02995054       0.00641726       0.02364542       0.00990105       0.02329046       0.00499311       0.01838252       0.00642734       0.01509942       0.00324006       0.01191214       0.00351154       0.00823505       0.00176917       0.00649267       0.00064551       0.00476157       0.00000281       0.00123637       0.00148178       0.00346687       0.00074588       0.00273097       0.00027125       0.00200044       0.00000115       0.00051808       0.00026453       0.00061636       0.00013290       0.00048474       0.00004801       0.00035424       0.00000020       0.00009125       0.00001307       0.00003029       0.00000654       0.00002376       0.00000234       0.00001730       0.00000441
Si       5.40033000       8.15148000       2.67308000       0.44271800      -0.95215500       1.35331000       1.54354378       1.28350508       1.04906792       0.77887694       0.47795220       0.22108882       0.03279093       0.00074684       0.01059593       0.02369361       0.00583357       0.01893125       0.00820590       0.01832309       0.00451941       0.01463660       0.00528188       0.01176519       0.00291081       0.00939412       0.00285132       0.00632965       0.00157267       0.00505100       0.00066145       0.00384460       0.00000472       0.00114799       0.00118250       0.00261243       0.00065298       0.00208291       0.00027463       0.00158462       0.00000196       0.00047329       0.00020376       0.00044589       0.00011278       0.00035491       0.00004742       0.00026972       0.00000034       0.00008060       0.00000944       0.00002033       0.00000525       0.00001613       0.00000221       0.00001224       0.00000366
Si       8.18194000       5.38471000       2.73789000      -0.43301100       0.06148730      -0.74666700       1.56272221       1.30134119       1.06536862       0.79288784       0.48845318       0.22726261       0.03410052       0.00078401       0.01317432       0.02595292       0.00740723       0.02018584       0.01023694       0.02010794       0.00575915       0.01563016       0.00662713       0.01295273       0.00373212       0.01005772       0.00360612       0.00699961       0.00203364       0.00542713       0.00084342       0.00404131       0.00000527       0.00118968       0.00151243       0.00290712       0.00085457       0.00224926       0.00035440       0.00167244       0.00000221       0.00049222       0.00026641       0.00050233       0.00015109       0.00038701       0.00006265       0.00028690       0.00000039       0.00008440       0.00001281       0.00002338       0.00000731       0.00001788       0.00000303       0.00001319       0.00000388
Si       6.74064000       6.74544000       1.40922000      -0.06651440      -0.58328200      -0.30357800       1.48987652       1.23286876       1.00200444       0.73740203       0.44562596       0.20093916       0.02783304       0.00054202       0.00693224       0.02121424       0.00342495       0.01770695       0.00535109       0.01640596       0.00264155       0.01369642       0.00342502       0.01053414       0.00168831       0.00879743       0.00183448       0.00566695       0.00090245       0.00473492       0.00035692       0.00371026       0.00000203       0.00113740       0.00075236       0.00233843       0.00036906       0.00195513       0.00014568       0.00153257       0.00000082       0.00046983       0.00012681       0.00039884       0.00006186       0.00033389       0.00002432       0.00026190       0.00000013       0.00008030       0.00000566       0.00001814       0.00000273       0.00001522       0.00000107       0.00001195       0.00000367
Si       9.52965000       9.48198000       1.15533000       1.19953000      -0.66803900       1.38314000       1.46451417       1.20366676       0.97128982       0.70785788       0.42207374       0.18754013       0.02566454       0.00051528       0.01153400       0.03055748       0.00533560       0.02435909       0.00902973       0.02392716       0.00417509       0.01907252       0.00592210       0.01569811       0.00273585       0.01251186       0.00328222       0.00870561       0.00151441       0.00693780       0.00050846       0.00502902       0.00000117       0.00113733       0.00141361       0.00375334       0.00065104       0.00299077       0.00021823       0.00216616       0.00000050       0.00048656       0.00026282       0.00069976       0.00012058       0.00055752       0.00004029       0.00040322       0.00000009       0.00008940       0.00001392       0.00003733       0.00000634       0.00002975       0.00000211       0.00002147       0.00000467