64
Lattice="10.862 0.0 0.0 0.0 10.862 0.0 0.0 0.0 10.862" Properties=species:S:1:pos:R:3:atomic_forces_forces:R:3 co-id=CO_517215451662840113 energy_energy=-271.17278 energy_per_atom=F cauchy_stress_stress="_JSON [0.002335346772275158, 0.00285736656031974, 0.00046128995418181053, 0.0035511588586026634, -0.0012856037675618539, 0.0022209050823767955]" cauchy_stress_volume_normalized=F pbc="T T T"
Si      10.72310000       0.28177000      10.78030000      -0.93558100      -0.57445600      -0.39053700
Si       2.70350000       2.70680000       0.03685430      -0.06553240      -0.32030800      -0.70711400
Si       0.09584860       2.59830000       2.81112000      -0.79348900       0.56649400       0.63840000
Si       2.81072000      10.83850000       2.66985000      -0.16167300      -0.61917100      -0.45517700
Si       1.32945000       1.32505000       1.37813000       1.04376000       0.05729960      -0.24386800
Si       4.01037000       4.11597000       1.34974000       0.83695800      -0.42628000       0.05157720
Si       1.39045000       4.02570000       4.15255000       0.49854300      -0.45556300       0.42226100
Si       4.18430000       1.38854000       3.94094000      -1.31835000      -0.77377800       1.56683000
Si       5.48617000       0.01030720      10.79610000      -1.52992000       0.57171500      -1.28477000
Si       8.18336000       2.80209000       0.03730000       0.20336300      -0.82919600      -0.16294100
Si       5.42597000       2.71828000       2.61261000       1.24512000       0.71088600      -0.15600000
Si       8.13817000      10.73090000       2.48971000       0.64679700       1.56466000       1.77648000
Si       6.77832000       1.31033000       1.25171000       0.64866800       1.07011000       0.51352500
Si       9.62247000       4.02015000       1.54049000      -1.05448000      -1.15338000      -0.44984300
Si       6.85162000       4.05940000       4.03820000      -1.54254000       0.41594800      -0.44641800
Si       9.42440000       1.34418000       4.11135000       0.74858100      -1.26416000      -0.14544900
Si       0.08180000       5.19996000       0.16897500      -0.64999500       3.09565000      -0.64253900
Si       2.73899000       8.25597000      10.81910000      -0.95519600      -0.63650600       0.21313100
Si       0.05888120       7.96576000       2.71954000      -0.12194300       1.41131000      -1.21424000
Si       2.79085000       5.40837000       2.84196000      -0.40310200       0.24347100      -0.07663940
Si       1.54635000       6.67188000       1.30596000      -0.92781800       0.60044700       0.77176000
Si       4.21862000       9.42977000       1.27574000      -1.41960000       1.86680000      -0.00101845
Si       1.41592000       9.47354000       4.05934000      -0.31231600       0.00239714       0.24439900
Si       4.02327000       6.89928000       4.18971000       1.66353000      -1.20321000      -1.50325000
Si       5.39580000       5.40466000      10.81100000      -1.28073000       1.70511000       1.28167000
Si       8.00113000       8.15082000       0.05540000       0.90017200      -0.38231200      -0.45227500
Si       5.40033000       8.15148000       2.67308000       0.44263900      -0.95205800       1.35323000
Si       8.18194000       5.38471000       2.73789000      -0.43284900       0.06149310      -0.74669400
Si       6.74064000       6.74544000       1.40922000      -0.06661240      -0.58340200      -0.30329700
Si       9.52965000       9.48198000       1.15533000       1.19941000      -0.66811600       1.38332000
Si       6.85931000       9.45652000       3.95447000      -2.40298000       1.72092000       0.09252240
Si       9.49743000       6.64693000       4.06567000       0.27917000       1.32635000       0.26817800
Si       0.10720000      10.84680000       5.57614000      -1.35350000      -0.27397000      -2.40045000
Si       2.79839000       2.58982000       5.50542000      -0.51677800       0.25595100      -1.77201000
Si       0.04355170       2.89707000       8.02261000       0.75515500      -2.10999000       1.22717000
Si       2.62139000      10.74730000       8.22613000       0.97221500       0.71750500      -0.64436400
Si       1.42300000       1.31347000       6.86971000      -0.38330300       0.79548900       0.29390900
Si       4.01883000       4.07859000       6.69812000       1.80798000       0.65318300       0.49630600
Si       1.33003000       4.07506000       9.57259000       1.25048000      -0.65822000      -1.27876000
Si       4.03381000       1.44975000       9.32371000       0.19826800      -1.28753000       2.19696000
Si       5.36216000       0.02700000       5.47144000       2.96937000       0.93089700      -1.49105000
Si       8.16760000       2.87557000       5.43039000       0.60717600      -1.32569000       0.41597500
Si       5.45689000       2.82295000       8.13306000      -0.47235600       0.63603100      -0.08902740
Si       8.15403000      10.84660000       7.98942000      -0.73400800      -0.34508100       0.04059180
Si       6.84907000       1.56080000       6.82744000      -0.81322500      -1.87700000      -1.26824000
Si       9.47650000       4.12875000       6.90168000      -1.04751000       1.65388000      -1.31411000
Si       6.74227000       4.10350000       9.63491000       0.50731700      -0.58492400      -1.33395000
Si       9.34211000       1.54364000       9.15481000       1.32292000       0.36735800       2.37552000
Si      10.85620000       5.40148000       5.46999000      -0.55202000      -0.81618900      -0.04444490
Si       2.73447000       8.14031000       5.50848000      -2.03036000       0.01791940       0.67629300
Si      10.81570000       8.11898000       8.42669000      -0.83798800      -0.24483000      -2.89487000
Si       2.68773000       5.39230000       8.06992000      -0.05704130      -0.02370590       1.56866000
Si       1.24214000       6.67990000       6.87425000       0.70138700       2.51089000       0.04643870
Si       4.07079000       9.55066000       6.72552000      -0.52554800      -0.84939200       2.07725000
Si       1.14879000       9.62775000       9.63678000       1.55524000      -0.53850100       0.17326200
Si       3.99230000       6.84900000       9.45768000       0.85511800      -0.67520100      -0.41970700
Si       5.51342000       5.49091000       5.38981000      -0.98261000      -0.55890700       0.49526900
Si       8.05812000       8.12280000       5.23923000       1.28410000      -1.68383000       2.39423000
Si       5.45761000       8.18018000       8.13615000      -1.14479000       0.71427200       0.34023600
Si       8.03431000       5.47625000       8.28202000       1.63411000      -0.20465000       0.32260400
Si       6.75877000       6.79627000       6.90236000       0.70132000       0.44900300      -2.01597000
Si       9.47323000       9.40654000       6.66946000       0.67060700      -0.47499600       1.42359000
Si       6.82427000       9.54338000       9.48645000      -0.01049430      -0.09922420      -0.85099800
Si       9.48909000       6.75633000       9.73883000      -0.31322100      -1.21970000       0.05847950
