64
Lattice="10.862 0.0 0.0 0.0 10.862 0.0 0.0 0.0 10.862" Properties=species:S:1:pos:R:3:atomic_forces_forces:R:3:kliff_descriptor_symmetry_function_descriptors:R:51 energy_energy=-263.41265 energy_per_atom=F kliff_descriptor_symmetry_function_cut_name=cos kliff_descriptor_symmetry_function_cut_dists="{\"Si-Si\": 4.0}" kliff_descriptor_symmetry_function_hyperparams=set51 pbc="T T T"
Si      10.87020000      -0.10323000      10.87150000      -0.88655100       0.66580900       0.66663200       1.56148753       1.30234603       1.06769228       0.79591733       0.49126411       0.22904228       0.03448741       0.00079739       0.01217365       0.02327841       0.00692626       0.01803102       0.00943431       0.01802447       0.00536830       0.01395846       0.00607948       0.01159803       0.00345996       0.00897850       0.00328669       0.00625793       0.00187093       0.00484218       0.00079372       0.00359462       0.00000589       0.00102289       0.00136558       0.00259336       0.00077755       0.00200534       0.00032977       0.00148772       0.00000244       0.00042264       0.00023599       0.00044613       0.00013442       0.00034457       0.00005698       0.00025531       0.00000042       0.00007229       0.00001097       0.00002061       0.00000625       0.00001589       0.00000265       0.00001175       0.00000331
Si       2.65429000       2.76148000       0.12119900      -0.18204800      -0.14381100      -1.66213000       1.41053837       1.16350800       0.94167740       0.68803356       0.41025312       0.18083184       0.02370754       0.00042098       0.00415208       0.01342418       0.00188038       0.01115248       0.00318881       0.01031371       0.00144349       0.00856839       0.00202315       0.00654804       0.00091511       0.00543999       0.00107027       0.00346750       0.00048355       0.00288079       0.00017411       0.00220344       0.00000064       0.00059499       0.00043117       0.00139912       0.00019448       0.00116243       0.00006992       0.00088887       0.00000026       0.00023946       0.00007009       0.00022825       0.00003150       0.00018966       0.00001129       0.00014495       0.00000004       0.00003887       0.00000293       0.00000962       0.00000131       0.00000800       0.00000047       0.00000611       0.00000162
Si       0.04534280       2.54229000       2.71367000      -0.31239300       1.28413000      -0.34221500       1.44026943       1.18085890       0.95048352       0.69010035       0.40865104       0.17907514       0.02335994       0.00041502       0.00434667       0.02375982       0.00146234       0.02087549       0.00335215       0.01842051       0.00112234       0.01619070       0.00214251       0.01187990       0.00071136       0.01044875       0.00114563       0.00643172       0.00037590       0.00566200       0.00013407       0.00454585       0.00000088       0.00132711       0.00046898       0.00267922       0.00015127       0.00236151       0.00005359       0.00189799       0.00000035       0.00055582       0.00007889       0.00046623       0.00002457       0.00041191       0.00000858       0.00033173       0.00000006       0.00009776       0.00000353       0.00002205       0.00000103       0.00001955       0.00000035       0.00001580       0.00000471
Si       2.75605000      10.79160000       2.77087000       0.49802300       1.29216000      -0.38615600       1.53660860       1.27870891       1.04564120       0.77646502       0.47616565       0.21974253       0.03227350       0.00071071       0.00990071       0.02152034       0.00545435       0.01707398       0.00765198       0.01664705       0.00421429       0.01320936       0.00490794       0.01069425       0.00270161       0.00848792       0.00263609       0.00575763       0.00144991       0.00457145       0.00061157       0.00344437       0.00000452       0.00096758       0.00108518       0.00237900       0.00059615       0.00188996       0.00025136       0.00142426       0.00000185       0.00039944       0.00018414       0.00040712       0.00010088       0.00032386       0.00004250       0.00024418       0.00000031       0.00006826       0.00000829       0.00001868       0.00000452       0.00001490       0.00000190       0.00001125       0.00000313
Si       1.37964000       1.19201000       1.34585000       0.32651700       0.56935500       0.57201200       1.50805827       1.25121581       1.01975121       0.75341518       0.45806132       0.20837160       0.02942757       0.00059121       0.00806949       0.02095090       0.00418089       0.01706230       0.00622612       0.01619696       0.00322347       0.01319431       0.00398174       0.01039408       0.00205885       0.00847118       0.00212989       0.00558722       0.00109929       0.00455662       0.00043723       0.00350325       0.00000263       0.00104418       0.00087167       0.00230299       0.00044869       0.00188000       0.00017812       0.00144627       0.00000106       0.00043132       0.00014618       0.00039194       0.00007483       0.00032059       0.00002959       0.00024693       0.00000017       0.00007372       0.00000645       0.00001777       0.00000327       0.00001458       0.00000128       0.00001126       0.00000337
Si       4.21562000       4.01445000       1.29038000      -1.57418000       0.52151400       1.83923000       1.50463461       1.24985723       1.01996511       0.75507086       0.46073965       0.21108528       0.03059008       0.00066738       0.00799102       0.02004679       0.00411705       0.01617283       0.00615321       0.01548975       0.00316669       0.01250322       0.00392137       0.00993077       0.00201419       0.00802358       0.00208718       0.00533067       0.00106910       0.00431259       0.00041910       0.00327529       0.00000316       0.00095082       0.00084801       0.00219249       0.00043261       0.00177709       0.00016932       0.00135137       0.00000127       0.00039249       0.00014008       0.00037133       0.00007086       0.00030210       0.00002764       0.00023032       0.00000021       0.00006696       0.00000601       0.00001666       0.00000299       0.00001364       0.00000116       0.00001045       0.00000304
Si       1.31004000       4.07703000       4.16101000       1.12994000      -1.50576000      -0.43038900       1.39001469       1.14371954       0.92315937       0.67187384       0.39818851       0.17399245       0.02241885       0.00039069       0.00260294       0.01336553       0.00091288       0.01167547       0.00199668       0.01030163       0.00069653       0.00900149       0.00126447       0.00657748       0.00043702       0.00575003       0.00066751       0.00351176       0.00022766       0.00307192       0.00008315       0.00244309       0.00000061       0.00067651       0.00026835       0.00143446       0.00008977       0.00125588       0.00003251       0.00099881       0.00000024       0.00027555       0.00004358       0.00024029       0.00001400       0.00021072       0.00000498       0.00016757       0.00000004       0.00004588       0.00000184       0.00001067       0.00000055       0.00000938       0.00000019       0.00000746       0.00000201
Si       4.02837000       1.46524000       4.07590000       0.20386000      -0.99345400      -0.12441300       1.51052794       1.25552654       1.02520108       0.75944049       0.46356708       0.21210238       0.03038595       0.00063114       0.00957645       0.02015607       0.00520009       0.01577970       0.00741138       0.01555195       0.00402687       0.01216744       0.00476475       0.00994630       0.00259153       0.00777308       0.00256763       0.00532097       0.00139851       0.00415185       0.00054616       0.00309852       0.00000281       0.00095676       0.00106201       0.00217813       0.00057960       0.00169572       0.00022616       0.00126350       0.00000115       0.00039059       0.00018194       0.00036552       0.00009968       0.00028326       0.00003883       0.00021038       0.00000019       0.00006518       0.00000833       0.00001616       0.00000460       0.00001242       0.00000179       0.00000917       0.00000285
Si       5.42942000       0.09102000      10.73210000      -0.09417730       0.75256500       1.56521000       1.46269345       1.20926821       0.98155471       0.72072404       0.43378214       0.19439447       0.02663369       0.00051690       0.00639839       0.01873329       0.00298673       0.01532164       0.00493588       0.01448752       0.00230179       0.01185343       0.00315577       0.00930372       0.00146909       0.00761704       0.00168760       0.00500740       0.00078360       0.00410340       0.00028156       0.00309864       0.00000146       0.00082437       0.00069051       0.00206873       0.00031938       0.00169760       0.00011454       0.00128341       0.00000059       0.00034196       0.00011582       0.00035430       0.00005311       0.00029159       0.00001897       0.00022099       0.00000010       0.00005906       0.00000512       0.00001632       0.00000231       0.00001351       0.00000082       0.00001028       0.00000276
Si       8.03093000       2.73118000      10.74770000      -0.71712800      -0.01946530       0.49944000       1.38381450       1.13706938       0.91649203       0.66569404       0.39329590       0.17101655       0.02174409       0.00036614       0.00660710       0.01551843       0.00320054       0.01211187       0.00512338       0.01193867       0.00248735       0.00930264       0.00330548       0.00759781       0.00161088       0.00590321       0.00179069       0.00403753       0.00087723       0.00312408       0.00028833       0.00223543       0.00000050       0.00057676       0.00074675       0.00163785       0.00036849       0.00125959       0.00012119       0.00089639       0.00000021       0.00023101       0.00013033       0.00027040       0.00006521       0.00020528       0.00002147       0.00014438       0.00000004       0.00003711       0.00000621       0.00001168       0.00000317       0.00000865       0.00000105       0.00000594       0.00000152
Si       5.47128000       2.80456000       2.83053000      -1.10349000      -1.51459000      -1.58371000       1.56360051       1.31128538       1.08091028       0.81164629       0.50630226       0.23971703       0.03758939       0.00096730       0.01379745       0.01832183       0.00841605       0.01294043       0.01070494       0.01414391       0.00653479       0.00997376       0.00691171       0.00905363       0.00422481       0.00636674       0.00374661       0.00484921       0.00229429       0.00339688       0.00100218       0.00235036       0.00000872       0.00066781       0.00156249       0.00198833       0.00095923       0.00138507       0.00041936       0.00095429       0.00000365       0.00027097       0.00027197       0.00033476       0.00016777       0.00023056       0.00007347       0.00015747       0.00000064       0.00004466       0.00001279       0.00001488       0.00000795       0.00001004       0.00000349       0.00000675       0.00000191
Si       8.24912000       0.04335200       2.70033000      -2.83275000      -2.02183000      -0.30126300       1.58672270       1.32428852       1.08719477       0.81304799       0.50574337       0.23991055       0.03847183       0.00107744       0.01415397       0.02904669       0.00808517       0.02297789       0.01100050       0.02261769       0.00628260       0.01789979       0.00712455       0.01469705       0.00406746       0.01163996       0.00387969       0.00804148       0.00221365       0.00637545       0.00098374       0.00483808       0.00001040       0.00140720       0.00162933       0.00340091       0.00092878       0.00270037       0.00041338       0.00205135       0.00000441       0.00059636       0.00028801       0.00061007       0.00016382       0.00048588       0.00007312       0.00036986       0.00000079       0.00010742       0.00001397       0.00003042       0.00000791       0.00002436       0.00000355       0.00001861       0.00000540
Si       6.75400000       1.36181000       1.51703000       0.22159500       0.54085200      -2.16486000       1.43956122       1.18087375       0.95104579       0.69111962       0.40986552       0.18005070       0.02365870       0.00042909       0.00452229       0.02357039       0.00151752       0.02056561       0.00347510       0.01823845       0.00115939       0.01592273       0.00220725       0.01172264       0.00072901       0.01024440       0.00116978       0.00631565       0.00038086       0.00552672       0.00011603       0.00441906       0.00000056       0.00133906       0.00047272       0.00261191       0.00015073       0.00228992       0.00004547       0.00183394       0.00000022       0.00055755       0.00007745       0.00044762       0.00002365       0.00039382       0.00000699       0.00031637       0.00000003       0.00009680       0.00000330       0.00002055       0.00000093       0.00001818       0.00000026       0.00001468       0.00000454
Si       9.50149000       3.95075000       1.23577000       0.82803100       0.00350040       1.61600000       1.44334520       1.18958862       0.96219609       0.70276095       0.41925346       0.18529036       0.02451142       0.00043986       0.00670111       0.01975040       0.00294985       0.01599914       0.00518011       0.01531963       0.00227663       0.01241615       0.00332385       0.00988913       0.00145664       0.00802192       0.00178655       0.00536163       0.00077967       0.00435475       0.00025345       0.00320764       0.00000062       0.00073853       0.00073643       0.00223875       0.00031936       0.00182169       0.00010357       0.00134362       0.00000025       0.00030905       0.00012541       0.00039182       0.00005364       0.00032005       0.00001731       0.00023672       0.00000004       0.00005435       0.00000570       0.00001876       0.00000237       0.00001543       0.00000076       0.00001147       0.00000263
Si       6.75336000       4.03738000       4.08794000       1.60796000       0.95839400       2.66533000       1.44372315       1.19631076       0.97362398       0.71800326       0.43580360       0.19875865       0.02920317       0.00072483       0.00793406       0.01747026       0.00418343       0.01371962       0.00612541       0.01349433       0.00322999       0.01059891       0.00392148       0.00864769       0.00206798       0.00679419       0.00210075       0.00464054       0.00110782       0.00364762       0.00043069       0.00270044       0.00000327       0.00077530       0.00086155       0.00190900       0.00045425       0.00150171       0.00017666       0.00111289       0.00000135       0.00032054       0.00014508       0.00032411       0.00007642       0.00025546       0.00002974       0.00018975       0.00000023       0.00005499       0.00000644       0.00001470       0.00000338       0.00001163       0.00000132       0.00000868       0.00000254
Si       9.54472000       1.15957000       3.99949000       2.11114000       1.30128000       1.04700000       1.61418659       1.35218853       1.11420367       0.83729048       0.52426316       0.25061721       0.04056239       0.00112866       0.01817189       0.02858472       0.01082592       0.02123875       0.01418173       0.02225228       0.00845303       0.01652358       0.00925022       0.01445239       0.00551828       0.01072045       0.00508710       0.00790121       0.00303826       0.00585237       0.00132609       0.00422936       0.00001103       0.00120585       0.00216642       0.00333705       0.00129596       0.00246660       0.00056603       0.00178012       0.00000472       0.00050740       0.00039364       0.00059661       0.00023620       0.00043917       0.00010330       0.00031608       0.00000086       0.00009005       0.00002002       0.00002952       0.00001207       0.00002157       0.00000529       0.00001545       0.00000440
Si      10.80890000       5.58420000       0.15166200      -0.60332700      -0.45660600      -0.74223300       1.49902710       1.24784325       1.02005398       0.75629650       0.46177853       0.21110672       0.03013448       0.00062038       0.01216168       0.01875125       0.00675833       0.01334790       0.00945893       0.01450509       0.00526082       0.01030698       0.00613326       0.00931790       0.00341606       0.00660070       0.00334477       0.00501594       0.00186662       0.00353779       0.00069259       0.00236137       0.00000220       0.00060626       0.00140720       0.00207179       0.00078748       0.00145206       0.00029215       0.00096311       0.00000092       0.00024634       0.00024940       0.00035409       0.00014030       0.00024500       0.00005204       0.00016038       0.00000016       0.00004071       0.00001212       0.00001618       0.00000688       0.00001093       0.00000255       0.00000698       0.00000175
Si       2.70755000       8.17841000       0.08917260       0.90001200       1.24654000       0.05410940       1.47722401       1.22524606       0.99803294       0.73655306       0.44682027       0.20254434       0.02846996       0.00057838       0.00644972       0.01653261       0.00340277       0.01348567       0.00496536       0.01272002       0.00262019       0.01037485       0.00316334       0.00809538       0.00166984       0.00660189       0.00168306       0.00430117       0.00088885       0.00350696       0.00036625       0.00270464       0.00000255       0.00081262       0.00068353       0.00174349       0.00036120       0.00142116       0.00014880       0.00109596       0.00000103       0.00032961       0.00011287       0.00028690       0.00005971       0.00023374       0.00002458       0.00018023       0.00000017       0.00005431       0.00000485       0.00001225       0.00000257       0.00000997       0.00000106       0.00000769       0.00000232
Si      -0.10318000       8.21411000       2.71054000       1.45285000      -0.56190800      -1.23777000       1.49435101       1.22707126       0.98979123       0.72146441       0.43064404       0.19157967       0.02609076       0.00050990       0.00803640       0.03149437       0.00333735       0.02679532       0.00621381       0.02451264       0.00257066       0.02086949       0.00398920       0.01591744       0.00163929       0.01356754       0.00214619       0.00870244       0.00087342       0.00742967       0.00030769       0.00582008       0.00000167       0.00166102       0.00088622       0.00367776       0.00035548       0.00314702       0.00012457       0.00246921       0.00000067       0.00070558       0.00015166       0.00065968       0.00005897       0.00056700       0.00002043       0.00044628       0.00000011       0.00012787       0.00000699       0.00003304       0.00000256       0.00002861       0.00000086       0.00002264       0.00000652
Si       2.74945000       5.35206000       2.75142000       0.16382500      -0.71547600      -0.60798300       1.46934413       1.21384087       0.98476127       0.72284680       0.43511672       0.19515832       0.02680460       0.00052246       0.00734025       0.02089632       0.00366144       0.01721752       0.00568292       0.01615287       0.00283570       0.01330565       0.00365653       0.01036456       0.00182563       0.00853366       0.00197334       0.00557138       0.00098608       0.00458412       0.00037829       0.00354649       0.00000181       0.00108447       0.00081844       0.00229721       0.00040949       0.00188826       0.00015678       0.00145987       0.00000074       0.00044687       0.00014127       0.00039164       0.00007087       0.00032124       0.00002703       0.00024801       0.00000012       0.00007607       0.00000660       0.00001786       0.00000333       0.00001459       0.00000126       0.00001124       0.00000346
Si       1.47140000       6.77984000       1.42370000      -1.55724000       0.67534000       0.91939400       1.48899556       1.23266732       1.00227656       0.73812244       0.44677393       0.20226962       0.02850653       0.00058684       0.00750622       0.02096678       0.00368070       0.01714125       0.00578802       0.01622899       0.00283377       0.01327473       0.00369782       0.01043715       0.00180548       0.00854482       0.00197532       0.00562807       0.00096067       0.00461341       0.00037130       0.00350544       0.00000255       0.00094217       0.00080693       0.00233081       0.00039015       0.00191403       0.00015045       0.00145589       0.00000103       0.00039092       0.00013488       0.00040074       0.00006441       0.00033028       0.00002472       0.00025175       0.00000017       0.00006747       0.00000592       0.00001853       0.00000276       0.00001537       0.00000105       0.00001176       0.00000314
Si       4.19122000       9.62619000       1.41131000      -0.60323100      -1.10562000      -1.53481000       1.46908145       1.21572929       0.98790744       0.72662622       0.43854856       0.19734500       0.02729006       0.00053855       0.00603831       0.01748770       0.00291241       0.01436181       0.00464090       0.01346952       0.00223643       0.01106506       0.00294813       0.00858859       0.00141849       0.00705895       0.00156222       0.00457536       0.00074999       0.00376313       0.00028605       0.00286642       0.00000166       0.00077830       0.00063077       0.00186174       0.00030184       0.00153280       0.00011498       0.00116832       0.00000067       0.00031724       0.00010294       0.00030873       0.00004892       0.00025471       0.00001859       0.00019441       0.00000011       0.00005280       0.00000433       0.00001337       0.00000203       0.00001107       0.00000077       0.00000847       0.00000230
Si       1.50346000       9.36500000       4.00708000      -0.90692800      -0.68456900       0.28921600       1.56831164       1.30322550       1.06453258       0.78983676       0.48441635       0.22404989       0.03317961       0.00074102       0.01384728       0.02985544       0.00729845       0.02330660       0.01079374       0.02323553       0.00568961       0.01813140       0.00702619       0.01508495       0.00370426       0.01176302       0.00385356       0.00824314       0.00203205       0.00642162       0.00077265       0.00470927       0.00000410       0.00130598       0.00163508       0.00347973       0.00086243       0.00270708       0.00032702       0.00198280       0.00000170       0.00054988       0.00029510       0.00062190       0.00015572       0.00048252       0.00005874       0.00035257       0.00000029       0.00009778       0.00001485       0.00003082       0.00000784       0.00002381       0.00000293       0.00001733       0.00000481
Si       4.00257000       6.79022000       4.03090000       1.76172000      -0.31602300      -1.35439000       1.57271888       1.31282689       1.07743734       0.80471631       0.49871457       0.23454448       0.03644357       0.00092535       0.01608451       0.02770697       0.00908532       0.02070778       0.01260629       0.02162571       0.00712375       0.01614317       0.00828499       0.01411175       0.00468525       0.01051200       0.00460675       0.00776890       0.00260777       0.00576993       0.00105016       0.00409248       0.00000620       0.00108197       0.00199464       0.00331637       0.00113069       0.00245243       0.00045432       0.00173228       0.00000264       0.00045597       0.00037568       0.00060714       0.00021354       0.00044501       0.00008542       0.00031165       0.00000048       0.00008131       0.00002050       0.00003153       0.00001171       0.00002274       0.00000465       0.00001567       0.00000403
Si       5.42106000       5.45370000       0.03575400       0.24645200       1.40867000      -1.37893000       1.47593783       1.22384563       0.99667167       0.73542405       0.44619565       0.20250292       0.02867759       0.00060153       0.00685447       0.01654675       0.00363251       0.01332479       0.00528275       0.01272515       0.00280161       0.01024401       0.00337202       0.00809232       0.00179051       0.00651080       0.00179905       0.00429480       0.00095693       0.00345267       0.00039419       0.00261540       0.00000265       0.00073413       0.00073363       0.00173814       0.00039118       0.00139569       0.00016130       0.00105649       0.00000108       0.00029645       0.00012220       0.00028510       0.00006548       0.00022837       0.00002705       0.00017261       0.00000018       0.00004840       0.00000533       0.00001211       0.00000288       0.00000965       0.00000119       0.00000728       0.00000204
Si       7.96258000       8.31024000      10.76690000       0.25222400      -1.85088000      -0.23721500       1.44531428       1.18873425       0.95989817       0.69996800       0.41712807       0.18442101       0.02457019       0.00045872       0.00680574       0.02181280       0.00312336       0.01813042       0.00523315       0.01683257       0.00239783       0.01399726       0.00332704       0.01076784       0.00152022       0.00896101       0.00176502       0.00576229       0.00080329       0.00480056       0.00029117       0.00369506       0.00000128       0.00102602       0.00071384       0.00235981       0.00032299       0.00196895       0.00011690       0.00151697       0.00000051       0.00042085       0.00011690       0.00039632       0.00005225       0.00033167       0.00001885       0.00025601       0.00000008       0.00007090       0.00000495       0.00001753       0.00000216       0.00001475       0.00000077       0.00001142       0.00000315
Si       5.47855000       8.10387000       2.60788000       0.14205200       0.23974100       1.92975000       1.43215941       1.18270381       0.95856945       0.70200855       0.42036533       0.18663689       0.02492771       0.00045884       0.00374156       0.01432691       0.00158799       0.01217334       0.00286363       0.01102149       0.00121122       0.00936909       0.00180611       0.00701280       0.00075938       0.00596607       0.00094761       0.00372483       0.00039505       0.00317227       0.00014848       0.00247002       0.00000087       0.00066467       0.00037733       0.00150922       0.00015537       0.00128726       0.00005812       0.00100290       0.00000034       0.00026923       0.00005995       0.00024814       0.00002406       0.00021226       0.00000891       0.00016555       0.00000005       0.00004423       0.00000241       0.00001058       0.00000092       0.00000909       0.00000034       0.00000711       0.00000188
Si       8.39446000       5.21711000       2.91198000      -2.03827000       1.14341000      -2.17926000       1.44270192       1.18333953       0.95310839       0.69297894       0.41176106       0.18187109       0.02441778       0.00046703       0.00578327       0.02395417       0.00209525       0.02026615       0.00443629       0.01851358       0.00159870       0.01567599       0.00280919       0.01187493       0.00100298       0.01006872       0.00148242       0.00637877       0.00052234       0.00541869       0.00015164       0.00415258       0.00000038       0.00108272       0.00059536       0.00262649       0.00020578       0.00223691       0.00005920       0.00171794       0.00000015       0.00044927       0.00009632       0.00044596       0.00003200       0.00038163       0.00000903       0.00029427       0.00000002       0.00007742       0.00000401       0.00002011       0.00000124       0.00001734       0.00000034       0.00001345       0.00000358
Si       6.88458000       6.69291000       1.40451000       0.86004500      -0.24488700      -0.05569180       1.36571938       1.11962599       0.90051188       0.65244103       0.38438010       0.16681509       0.02130540       0.00037093       0.00678247       0.01602765       0.00341730       0.01266248       0.00522672       0.01228719       0.00263757       0.00969805       0.00333564       0.00777172       0.00168777       0.00612385       0.00177916       0.00409384       0.00090352       0.00321820       0.00032374       0.00236907       0.00000092       0.00065368       0.00072522       0.00163937       0.00037017       0.00128432       0.00013279       0.00094309       0.00000038       0.00026049       0.00012068       0.00026338       0.00006220       0.00020490       0.00002236       0.00014968       0.00000006       0.00004143       0.00000526       0.00001080       0.00000275       0.00000830       0.00000099       0.00000600       0.00000167
Si       9.34496000       9.50044000       1.28085000       1.59877000       0.17006700       0.28374800       1.53654170       1.27733935       1.04359895       0.77418777       0.47422690       0.21854370       0.03198837       0.00069898       0.01041198       0.02342846       0.00564192       0.01865840       0.00804869       0.01810957       0.00436182       0.01442271       0.00516391       0.01161845       0.00279896       0.00925350       0.00277451       0.00624320       0.00150413       0.00497282       0.00060804       0.00377715       0.00000397       0.00117367       0.00114252       0.00257218       0.00061951       0.00204916       0.00025033       0.00155724       0.00000163       0.00048559       0.00019388       0.00043743       0.00010514       0.00034868       0.00004245       0.00026529       0.00000027       0.00008333       0.00000872       0.00001982       0.00000472       0.00001583       0.00000190       0.00001207       0.00000384