64
Lattice="10.862 0.0 0.0 0.0 10.862 0.0 0.0 0.0 10.862" Properties=species:S:1:pos:R:3:force:R:3:descriptors:R:10:ltau_forces_uq_score:R:1 PBC="1 1 1" Energy=-261.93944 ltau_forces_uq_bins="9.826158705261703e-06 1.1027062170109953e-05 1.2374733988202081e-05 1.388711144604322e-05 1.558432403465697e-05 1.7488961369744564e-05 1.9626373855691547e-05 2.2025010095210678e-05 2.4716795535485803e-05 2.7737557390534585e-05 3.1127501495435235e-05 3.4931747439266745e-05 3.92009290992939e-05 4.399186856940476e-05 4.9368332452677637e-05 5.5401880584202616e-05 6.217281848051923e-05 6.977126619261002e-05 7.82983577887071e-05 8.786758743182653e-05 9.860631996809534e-05 0.00011065748613155361 0.00012418148492831835 0.00013935831852052977 0.0001563899880250244 0.00017550318211441527 0.00019695229420541328 0.00022102280839265498 0.00024803509919425754 0.0002783486956830725 0.0003123670667585158 0.00035054299125013993 0.0003933845843281282 0.00044146206043123326 0.0004954153227255848 0.0005559624801088134 0.000623909405119375 0.000700160459965258 0.0007857305334337209 0.0008817585488913106 0.000989522623163398 0.0011104570780553508 0.001246171530935888 0.0013984723184750493 0.0015693865386831691 0.0017611890312463712 0.0019764326552623285 0.0022179822673679007 0.0024890528525018216 0.0027932523148165534 0.0031346294982791336 0.003517728076107228 0.003947647026299737 0.004430108498181178 0.0049715339732521865 0.005579129734034302 0.00626098277848512 0.007026168456588584 0.007884871261745434 0.008848520384677058 0.009929941834042498 0.0111435291484686 0.012505434972141823 0.014033786043800957 0.015748924460598036 0.017673678428009317 0.019833666099432202 0.022257636549522425 0.024977852419569537 0.028030519327856575 0.03145626776038425 0.03530069385584423 0.03961496628259934 0.044456507285101664 0.04988975696436252 0.055987030964919623 0.06282948298397104 0.07050818491351256 0.07912533899198845 0.08879563809899231 0.09964779229831235 0.11182624194735377 0.12549308017413968 0.1408302103097339 0.15804176699115657 0.1773568331592601 0.19903248911436056 0.22335723421203718 0.250654826741305 0.2812885930932962 0.31566626357475674 0.3542453992302428 0.3975394819030924 0.44612474859288853 0.5006478610735438 0.5618345128533615 0.6304990880342648 0.7075555006279824 0.794029358598705 0.8910716145335489 0.9999738846290095" ltau_forces_uq_index_type=IndexFlatL2 ltau_forces_uq_index_args=None ltau_forces_uq_num_nearest_neighbors=1 pbc="T T T"
Si      10.77670000       0.10462600      10.79190000       0.76239700      -0.54431600       0.85405300       0.03807197       0.51373592       0.12466239       0.90103223       0.60284759       0.37193729       0.77197666       0.22901986       0.64685461       0.67670957       0.48840642
Si       2.70277000       2.83598000       0.14581900      -0.72704000      -1.76650000      -0.79833100       0.94328239       0.05587956       0.11687309       0.07259353       0.79391099       0.80615507       0.41637370       0.21711242       0.46881764       0.68448852       0.47758770
Si      -0.14843600       2.72039000       2.61741000       0.51658000      -1.21464000      -0.12249600       0.39477396       0.02697061       0.80592728       0.58418773       0.63691122       0.27033678       0.96284073       0.17594715       0.54427089       0.46439551       0.49834941
Si       2.77288000      10.75920000       2.87709000       0.30542800       0.75483700      -0.99088100       0.71389899       0.82908680       0.35928722       0.00662333       0.19251509       0.25146519       0.80253517       0.54615876       0.50016831       0.79315781       0.52459668
Si       1.41892000       1.28983000       1.42459000      -0.80612400       0.35031600      -0.05456430       0.29180429       0.62237357       0.31468771       0.52300270       0.05931457       0.03390384       0.25823595       0.30942809       0.80835711       0.00036006       0.47844658
Si       4.12242000       4.09481000       1.32383000       0.53386600       2.07824000       0.10020300       0.36943611       0.33914168       0.87227556       0.25117943       0.95512963       0.74509126       0.34631655       0.83586855       0.39460918       0.16594380       0.50389242
Si       1.27934000       3.93149000       3.94479000       0.09310230       1.37053000       0.39592400       0.81274780       0.67221782       0.15420786       0.15669546       0.64588334       0.39068967       0.90594891       0.07132559       0.95383987       0.72371389       0.44119044
Si       4.02560000       1.40043000       4.17770000      -1.03492000       0.77715500       0.76329600       0.45063923       0.26335520       0.93705388       0.34148730       0.50346087       0.42450526       0.07762473       0.58994886       0.52890411       0.38232080       0.50389242
Si       5.27583000       0.17313800      10.85190000      -0.23483600      -1.24913000      -0.00815463       0.64645740       0.61370700       0.39570008       0.30113599       0.19799880       0.82956460       0.87351415       0.63587372       0.68803922       0.32051104       0.52458955
Si       8.08484000       2.73526000      10.90620000       0.75256100      -0.21793400       0.14416700       0.50363197       0.99091514       0.44124067       0.20855990       0.01041628       0.72211313       0.47034944       0.13239316       0.36248293       0.30799501       0.47741678
Si       5.36001000       2.85854000       2.82083000       1.24228000      -1.28825000       0.39923300       0.56570606       0.29418699       0.03044666       0.24578920       0.79599862       0.83376286       0.30571326       0.06501707       0.55601158       0.94825344       0.51118088
Si       8.07087000      -0.09064320       2.44669000       0.21543500       1.74603000       1.08126000       0.92725240       0.93291004       0.53586515       0.75311916       0.89333021       0.66224369       0.55677598       0.69345392       0.00466505       0.24558103       0.50883677
Si       6.60377000       1.43577000       1.24414000       1.01053000       0.70801000       2.26921000       0.75269724       0.22201809       0.29984508       0.25634199       0.89142913       0.65904040       0.92761510       0.00487850       0.49885486       0.61193046       0.51737002
Si       9.45764000       4.17078000       1.25684000      -0.74135700       0.06446940       1.44225000       0.35497410       0.05636581       0.64361870       0.66779735       0.19084060       0.72088931       0.70105812       0.27985476       0.53397162       0.21273035       0.49334764
Si       6.90314000       4.03857000       4.32926000      -1.22036000      -0.18580300      -2.31724000       0.82124893       0.83789494       0.00394802       0.72965347       0.86809526       0.81584185       0.22239154       0.05571848       0.37691072       0.74346465       0.46018595
Si       9.44727000       1.23865000       3.99271000       0.30909900      -0.09393970      -0.87389100       0.50729369       0.35262700       0.26747483       0.62555364       0.64130605       0.08004123       0.46397461       0.77248125       0.19636239       0.93622147       0.52716642
Si      10.75360000       5.63025000      -0.01245850      -0.46727300      -0.16403100      -1.87582000       0.26030926       0.04235675       0.24298591       0.45706902       0.11849894       0.73451688       0.27155061       0.41795245       0.23421470       0.23234480       0.43538436
Si       2.95422000       8.26278000       0.18953300      -0.96767500       0.03968670      -1.72261000       0.33365674       0.75447112       0.60720575       0.75887009       0.90851495       0.25564996       0.63178489       0.21610532       0.50169043       0.51554501       0.54910432
Si       0.05896400       8.00999000       2.63874000      -2.30114000       1.99212000       2.04735000       0.34039575       0.98837796       0.96756825       0.23299106       0.06216729       0.59807902       0.22005086       0.44985968       0.81761456       0.09511284       0.49813184
Si       2.52618000       5.43396000       2.52967000       1.70903000       0.23435600       1.09295000       0.31022348       0.31866090       0.73817161       0.20719315       0.51666954       0.15517269       0.20805077       0.71524841       0.52660208       0.57260664       0.52215505
Si       1.28312000       6.97890000       1.20170000       2.02135000      -1.90483000      -0.07233090       0.62186490       0.20499793       0.94835727       0.99219772       0.69843664       0.79897177       0.61115632       0.12231827       0.88543517       0.24996325       0.50845042
Si       4.35882000       9.52405000       1.60227000      -2.07169000       1.39001000      -1.75970000       0.46631116       0.43397461       0.72407348       0.45848597       0.44101318       0.06026333       0.22731541       0.56256447       0.62277560       0.70814079       0.45758208
Si       1.39612000       9.37479000       4.08373000      -1.17786000       0.67906400      -0.47137900       0.82567259       0.90914750       0.18723295       0.59327951       0.56594454       0.61543374       0.43858378       0.49800126       0.11739026       0.27425116       0.45571646
Si       4.19763000       6.68891000       4.01254000      -1.26478000       0.27093500      -1.43413000       0.96228668       0.26396393       0.68813235       0.95091333       0.08282151       0.24670846       0.47683975       0.68047165       0.49858915       0.36600190       0.47503982
Si       5.64324000       5.40564000      -0.13022500      -0.29474000      -0.25232000       2.40639000       0.06011705       0.46471435       0.36555254       0.84454479       0.13762725       0.24747064       0.81083609       0.72283886       0.99925094       0.07286704       0.52069698
Si       8.02977000       8.22082000      10.76820000       1.10180000       0.30872600      -0.69764900       0.76702701       0.66638424       0.48302351       0.85713717       0.69036952       0.33068889       0.29134601       0.60153838       0.54423075       0.09445820       0.48877403
Si       5.65467000       8.08458000       2.65616000       0.24038800      -0.97197800       2.11198000       0.73917620       0.20554968       0.73091902       0.45947084       0.45225828       0.52117875       0.47344231       0.54900411       0.00651919       0.22023675       0.50016288
Si       8.07169000       5.41989000       2.81656000       2.52428000      -1.73134000       0.71801300       0.75282134       0.29320824       0.45213392       0.23531536       0.35857219       0.90213301       0.09025282       0.36201040       0.33880892       0.27892420       0.49646309
Si       7.04224000       6.72495000       1.39306000      -2.63698000       0.70244100      -2.08577000       0.67381339       0.00680163       0.13715731       0.15701799       0.89234936       0.56687369       0.97847289       0.09805542       0.04797560       0.84179024       0.47966499
Si       9.52410000       9.44662000       1.23394000       0.27283600      -0.28260300       0.18091700       0.08912277       0.60439856       0.84004469       0.06007291       0.41082459       0.34580363       0.18224607       0.72376765       0.13148206       0.00454114       0.52297337
Si       6.85952000       9.60065000       4.01983000      -1.59283000      -0.49223000       1.01354000       0.42284824       0.54479319       0.14495164       0.82726001       0.96532536       0.54276012       0.63299589       0.99579184       0.97916595       0.79241578       0.48234896
Si       9.56097000       6.63143000       4.17184000      -0.09181660       1.16781000      -1.27213000       0.52629638       0.64492223       0.73692779       0.07727731       0.31206207       0.59064541       0.78259956       0.68608917       0.58167167       0.58709133       0.45654673
Si      10.95790000      10.91670000       5.40874000      -0.47861000      -1.38027000      -1.51645000       0.83035623       0.39586925       0.92325533       0.84443122       0.43943732       0.96950867       0.00854682       0.46980174       0.63213728       0.17129783       0.47135542
Si       2.47785000       2.78438000       5.59239000       1.78857000      -0.88011100      -1.56084000       0.13024710       0.46922858       0.64936635       0.16171149       0.42955861       0.92284985       0.41480885       0.40171052       0.56464581       0.19197450       0.49057391
Si       0.03804330       2.73224000       8.31949000       1.32483000      -2.03308000       0.10319400       0.79863195       0.17389201       0.14140351       0.53939793       0.23501465       0.12142284       0.52534906       0.38664382       0.21612708       0.09512045       0.52415923
Si       2.68360000      -0.23462700       8.18214000       0.50133000       1.49656000      -0.20264200       0.80579900       0.87163226       0.31417186       0.35879146       0.62303690       0.77902911       0.00857557       0.41957050       0.66285148       0.11165785       0.51486722
Si       1.36995000       1.21625000       6.86363000      -0.54458300       1.29088000       1.56590000       0.56003742       0.36545603       0.97836332       0.08748634       0.67118273       0.40574563       0.70866276       0.22485662       0.28722018       0.03028241       0.48882865
Si       3.86746000       4.21552000       6.80849000       1.97709000      -1.30285000       0.05239760       0.00533878       0.85778132       0.37286280       0.89170962       0.72827043       0.51391613       0.34871385       0.56743233       0.11661447       0.79810632       0.45427456
Si       1.30835000       4.10621000       9.67752000       0.60552700       1.82772000      -0.90010700       0.32658838       0.94142272       0.71569000       0.79713818       0.31643921       0.54125994       0.11050309       0.55792187       0.39543542       0.68139097       0.53962407
Si       3.87264000       1.42240000       9.51489000       0.25545200      -0.03809500      -0.63429600       0.04905847       0.53510115       0.32261891       0.12285863       0.33345078       0.21588128       0.83747863       0.28209914       0.03506952       0.30780508       0.52602451
Si       5.23784000      10.83160000       5.59119000       3.21120000       1.18220000      -2.39168000       0.87320595       0.91417996       0.77655780       0.57018174       0.77341316       0.61159457       0.32158448       0.65941592       0.44829773       0.67831973       0.50943817
Si       8.25019000       2.57509000       5.44733000       0.56842300       0.73754100       0.95660100       0.33501716       0.24529507       0.58633340       0.54333265       0.69691584       0.79123829       0.73109766       0.99398944       0.20062150       0.32946951       0.52477796
Si       5.34238000       2.74780000       8.13959000       0.07043150       0.42396400      -0.01841040       0.37047973       0.60454565       0.33869867       0.33177465       0.27939333       0.17400526       0.18625292       0.66865351       0.34772390       0.11147513       0.54052595
Si       8.14751000       0.08474780       8.03748000       1.05928000      -1.29655000       0.24190500       0.92096179       0.54883941       0.58219621       0.03858422       0.49642235       0.91870798       0.65552537       0.40579282       0.37163457       0.75594762       0.48765439
Si       6.80475000       1.40669000       6.76576000      -1.87015000      -0.52561900       0.14593600       0.99141469       0.68012738       0.61964300       0.09285066       0.07184962       0.38807157       0.24796337       0.03734229       0.86819329       0.14377016       0.45038874
Si       9.58487000       3.88111000       7.01122000      -0.77691700       1.71877000      -3.54183000       0.85655066       0.22090908       0.13521732       0.84267387       0.20784932       0.88082279       0.97637754       0.39721697       0.93199856       0.29590858       0.46803267
Si       6.96240000       3.99608000       9.47536000      -2.40143000       0.42716500      -1.45559000       0.83458984       0.43409781       0.75467172       0.16420771       0.84656327       0.21750942       0.69473400       0.72633896       0.76469434       0.26931690       0.51545514
Si       9.38495000       1.46194000       9.51222000       0.42693600      -0.69545200      -0.28551100       0.17456289       0.27942493       0.50890444       0.93946454       0.39235064       0.71909150       0.76252721       0.88174011       0.65345340       0.74800494       0.50361386
Si      10.94330000       5.28809000       5.46797000      -1.15402000      -1.25342000       0.45850300       0.62802406       0.81194896       0.76246960       0.42336447       0.85732798       0.09693292       0.19731120       0.75729881       0.07237689       0.37455549       0.47206314
Si       2.70250000       8.01821000       5.31506000       1.16731000      -0.60301800       1.05436000       0.92160010       0.31110816       0.06042288       0.45546602       0.56349793       0.97424320       0.28259364       0.64053358       0.80552469       0.61633196       0.48042557
Si      10.95660000       8.25407000       8.13863000      -0.63373200      -1.65656000      -1.75967000       0.55001826       0.87436926       0.15941079       0.98500297       0.55783793       0.23286991       0.56563408       0.77198119       0.93800033       0.78818925       0.45963833
Si       2.73560000       5.57106000       8.20608000      -1.21503000      -0.51288000       1.56984000       0.06727101       0.67154413       0.59901713       0.35793032       0.35425916       0.93598070       0.14659022       0.86125999       0.60121034       0.09486345       0.51186262
Si       1.32894000       6.72641000       6.73885000       0.70346400       1.15415000       0.78169400       0.12567799       0.88341198       0.19252196       0.50815354       0.89283604       0.67812761       0.59522968       0.40754965       0.89048235       0.04414753       0.48809747
Si       4.07434000       9.36291000       6.73580000      -1.03160000      -1.40730000       1.66082000       0.82477243       0.41294356       0.79921004       0.78068900       0.05055062       0.92490654       0.70498061       0.12635921       0.70996663       0.46172141       0.49526244
Si       1.26930000       9.48255000       9.56788000       1.90756000       0.15234900       1.74433000       0.84405335       0.25363832       0.84627957       0.34188208       0.61633030       0.35728526       0.97910329       0.92658708       0.90419664       0.40893633       0.45582529
Si       4.22856000       6.80492000       9.59937000      -0.56698900       1.07655000      -0.65355100       0.30325578       0.90670575       0.71943165       0.80698672       0.85709477       0.55961626       0.95584560       0.10217665       0.75001370       0.55381903       0.47267580
Si       5.44545000       5.39298000       5.46261000      -0.68848400      -0.21467200       0.73249800       0.44085398       0.19861372       0.39200443       0.72496520       0.81726035       0.06126400       0.22832500       0.08243048       0.63768382       0.40989509       0.51126612
Si       8.15449000       8.15425000       5.35358000       0.41339000      -0.88703600       0.53860400       0.04847299       0.09603867       0.91120724       0.13088019       0.16338901       0.68085133       0.14254982       0.04765911       0.67896434       0.18108060       0.54205814
Si       5.58396000       8.17413000       8.20014000      -1.06662000      -0.48726800      -0.81950800       0.69088456       0.21684497       0.61592445       0.38155670       0.38608430       0.04983969       0.08795393       0.01516232       0.38698033       0.52062793       0.47273667
Si       8.07338000       5.36528000       7.98941000       2.56661000      -0.46696600       2.05394000       0.62384646       0.50374747       0.46901955       0.69580041       0.45020194       0.12335251       0.24483225       0.50142303       0.11123334       0.83823894       0.51132150
Si       6.83350000       6.67645000       6.77791000      -1.04857000       2.66469000      -1.23824000       0.07530991       0.27153573       0.77229852       0.51401435       0.76345255       0.51762322       0.98966105       0.95642879       0.04427876       0.43605141       0.48899179
Si       9.67627000       9.43394000       6.61636000      -1.82843000       1.52577000       1.44432000       0.01182265       0.54056036       0.44733581       0.18464586       0.99612900       0.15172334       0.86324423       0.40221577       0.16456023       0.54442520       0.47084755
Si       6.67924000       9.76704000       9.50603000       1.05398000      -0.90390900      -0.26710200       0.31902167       0.08699670       0.89123286       0.85338025       0.31550434       0.51090423       0.24746713       0.51806515       0.36038396       0.60144251       0.55384196
Si       9.40237000       6.96767000       9.24065000      -0.27572400      -1.40816000       1.67695000       0.24597731       0.32243495       0.60944865       0.18534080       0.38956585       0.78807905       0.99134848       0.86059821       0.02076538       0.27941173       0.52477796
