64
Lattice="10.861999859992501 0.0 0.0 0.0 10.861999859992501 0.0 0.0 0.0 10.861999859992501" Properties=species:S:1:pos:R:3:atomic_forces_forces:R:3 po-id=PO_6620493500208212985310408 co-id=CO_1239727093607531253 ds-id=DS_kkjartbf5fi6_0 energy_energy=-9931.60989670508 cauchy_stress_stress="_JSON [-0.019871685265761736, -0.018024352143980436, -0.019177558108670948, 0.004190471355770297, -0.0016251389789030295, 0.0023468108644497986]" pbc="T T T"
Si      10.85879991       0.03415990      10.81620024       0.61369121       0.28089173       0.21400731
Si       2.73055035       2.77428945       0.06036774       0.09173233      -0.40820608      -0.07681556
Si      -0.09275388       2.78812004       2.68701003      -0.50934556      -0.42432664       0.10452511
Si       2.55127956      10.97029943       2.79641969       0.28135222      -1.26210492      -0.22881738
Si       1.25940978       1.41665026       1.41599963       0.27792571       0.34684619      -1.10674781
Si       4.07131977       4.19695944       1.42413961       0.59054537      -0.88246945      -1.47909523
Si       1.32000019       4.03040044       3.94535967       0.39984305       0.96883872       1.25772093
Si       4.10937044       1.31933000       3.99274949      -0.89565407       0.15676967       1.20493696
Si       5.44564951      -0.08948659      10.97809943      -1.24183331      -0.93631581      -1.27070217
Si       8.12662026       2.64359027      11.01610014       1.26566050       0.48960309      -0.56573371
Si       5.35318022       2.64950028       2.61183956       1.13752392       0.71587920       0.87028268
Si       8.15454972      -0.15044196       2.58779978       0.49296815       1.66278307       0.83215939
Si       6.75569033       1.23545038       1.32130037       0.27508567       0.86073386       1.09594841
Si       9.57595971       4.27904031       1.33331048      -1.50456740      -0.96191474       0.37421661
Si       6.70667012       4.08294971       4.18890961       0.01065877      -0.31820847      -2.13946148
Si       9.45266950       1.34718017       4.07679965      -0.77004514       0.44408839      -0.48925085
Si      10.94240038       5.43891941      -0.11138112       0.03907100       0.49642757      -0.37810849
Si       2.80474976       8.07567966      -0.07373234      -0.94023160       0.86055286       0.30104481
Si       0.02877344       8.10924975       2.70889044      -0.74519029       1.11909142       1.65948614
Si       2.67569943       5.45184954       2.61559020      -1.09135230       1.23884081       0.76469699
Si       1.24544016       6.95784953       1.28337027       1.82665695      -1.99315002      -0.82929261
Si       3.93018981       9.43159939       1.50463029       0.71850558       0.74139791      -0.39615660
Si       1.23730018       9.57964954       4.20128034       0.30692287      -0.08227453      -0.59873716
Si       4.05005958       6.78347967       4.03125963      -0.02214774       0.53675558      -0.31203576
Si       5.39113965       5.43801026      -0.13474745       1.82963763      -1.20954566       2.44423748
Si       8.37169957       8.11398015      10.88249971      -0.92510040       0.78211364       0.60509807
Si       5.50536009       8.24431981       2.81817954      -0.05073764      -0.63416851      -0.52743379
Si       7.97972040       5.57318025       2.68998947       1.66905450      -1.92591542       1.21636088
Si       6.86116035       6.83362952       1.27305028      -1.77524132       1.11206819      -0.57412836
Si       9.66115038       9.53297987       1.33235028      -0.34878146      -0.77156260       0.27800541
Si       6.90741943       9.65381962       4.15556001      -1.05847124      -1.11474497      -0.15975909
Si       9.54014010       6.71390965       4.11133972      -1.91291361       1.65973682      -1.42756672
Si      10.75289976      10.96120033       5.55860996      -0.23268869      -0.78787163      -1.51178038
Si       2.66854028       2.70600006       5.40565997       0.81767611      -0.09396148      -0.35135642
Si      -0.13278360       2.72329019       8.16064005       0.56661586      -1.17837952       0.02783888
Si       2.68465949       0.02410604       8.23375977       0.75803629       0.79934852      -1.37957477
Si       1.29268009       1.34986960       6.72819969       0.74826661       0.91731382       1.65189264
Si       4.18821010       3.94447008       6.83747033      -0.50286073       0.87580130      -1.21082427
Si       1.40202024       3.97111999       9.38900949      -0.05994296       0.90879395       0.36286210
Si       4.10172034       1.36090974       9.54679959       0.22004092      -0.07742312       0.52854476
Si       5.39107991      10.82789970       5.48052956       0.88650377       1.14257510      -0.01428711
Si       8.02122954       2.72970963       5.49466971       1.02253467      -0.56572060      -0.31548747
Si       5.54776969       2.67068987       8.17848957      -0.43554616       0.18245525       1.32165398
Si       8.14099938      -0.15984085       8.16480019       0.10085615      -0.08806877      -0.64995560
Si       6.83107044       1.33163991       6.91801966      -0.32154730      -0.95850160      -1.15398772
Si       9.42088946       4.04351957       6.82962036       0.23491810       1.11294391      -0.53907240
Si       6.88372941       4.00711014       9.62139980      -0.32322289       0.70034330      -1.08753036
Si       9.38491995       1.22247029       9.50372959       0.29810758       1.31664342       0.25184290
Si      10.80329944       5.47357028       5.39353038       1.24858452      -2.04982948       0.67407769
Si       2.76414000       8.24626954       5.38873046       1.15874632       0.75010161      -0.28573492
Si      10.99440003       8.16438961       7.99780020       0.18208861      -0.12630441       0.39421465
Si       2.76463965       5.39722997       7.99077032      -0.85821727      -0.57249546      -0.15669640
Si       1.47178034       6.84564941       6.52242997      -0.75208830      -1.03066373       1.76061894
Si       4.19196943       9.51480014       6.92682983      -1.04281502      -0.82434915       0.31472848
Si       1.35829960       9.57416966       9.46365967       0.20304002      -1.36174288       0.56563215
Si       4.03134978       6.57239951       9.49779025      -0.96317355       1.65878988      -1.10461431
Si       5.41034041       5.49188035       5.37776961      -0.60112932      -0.38268274       1.29997778
Si       8.12523970       8.18874004       5.45071011       0.40266921      -0.96968384      -0.64222866
Si       5.46856942       7.96966002       8.31766981      -0.09670407       1.15373421      -0.52708258
Si       8.14622943       5.53267042       8.12521038       0.24573987      -0.58104772       0.94149735
Si       6.76499037       6.82718944       6.78501013      -0.17457945      -0.25945105      -0.28314813
Si       9.54309022       9.41505982       6.69893964      -0.29670505       0.70780387       1.36564427
Si       6.90357972       9.38815031       9.58778952      -1.05300173      -0.06660237       0.50386963
Si       9.61407013       6.94290016       9.47398943       0.58457527      -1.80038028      -1.41441861
