64
Lattice="10.861999859992501 0.0 0.0 0.0 10.861999859992501 0.0 0.0 0.0 10.861999859992501" Properties=species:S:1:pos:R:3:atomic_forces_forces:R:3 po-id=PO_9321697064833192189558631 co-id=CO_904068382632445950 ds-id=DS_2ss789k5xko8_0 energy_energy=-9930.845949348175 cauchy_stress_stress="_JSON [-0.018044551611514824, -0.01831816258084426, -0.019044425254467028, -0.005849582166435706, 0.004815736691721124, -0.0009567202350378287]" pbc="T T T"
Si      10.87019958      -0.10323027      10.87149977      -0.72610781       0.60428560       0.46575148
Si       2.65429042       2.76147990       0.12119928      -0.22605319      -0.21672266      -1.17991986
Si       0.04534233       2.54229017       2.71366972      -0.21517588       1.10709002      -0.32535794
Si       2.75604998      10.79159998       2.77087010       0.47745617       1.09443043      -0.29725269
Si       1.37964017       1.19200999       1.34584958       0.34627720       0.45499167       0.51605280
Si       4.21562035       4.01444960       1.29037951      -1.23225775       0.21613542       1.19059663
Si       1.31003973       4.07702992       4.16100948       0.73119654      -1.10794594      -0.48206539
Si       4.02837034       1.46524033       4.07590028       0.15465648      -0.65705981      -0.05909578
Si       5.42941951       0.09102030      10.73210012      -0.17259790       0.60081539       1.30535756
Si       8.03093039       2.73118035      10.74770012      -0.44290286       0.08743036       0.43634140
Si       5.47127948       2.80455967       2.83052963      -0.92154919      -1.19245708      -1.45889253
Si       8.24911972       0.04335241       2.70033010      -2.26159171      -1.67727972      -0.53622619
Si       6.75400020       1.36181020       1.51703035       0.16607295       0.29527346      -1.59958252
Si       9.50148984       3.95075049       1.23576972       0.53720475       0.01551249       1.11998462
Si       6.75336043       4.03738037       4.08793972       1.55854309       1.02182067       2.03734832
Si       9.54471952       1.15956954       3.99949045       1.75531193       1.17530602       0.98879048
Si      10.80889989       5.58419975       0.15166176      -0.47124541      -0.21846895      -0.46577848
Si       2.70755007       8.17841028       0.08917267       0.51749133       0.90199338       0.00139354
Si      -0.10318031       8.21411041       2.71054038       1.15303924      -0.27903231      -1.04269829
Si       2.74945023       5.35206035       2.75141951       0.06141080      -0.68340745      -0.38396880
Si       1.47140017       6.77983981       1.42369970      -1.14933454       0.29298826       0.68397643
Si       4.19121996       9.62618995       1.41131050      -0.23155098      -0.85459381      -1.28691864
Si       1.50346045       9.36500013       4.00707973      -0.72475927      -0.54819519       0.36771403
Si       4.00256983       6.79021954       4.03090010       1.40421468      -0.23821836      -1.22677745
Si       5.42106011       5.45370042       0.03575444       0.33856569       1.17137609      -1.05529464
Si       7.96258017       8.31024020      10.76689979      -0.06625476      -1.58083507      -0.17110949
Si       5.47854942       8.10386980       2.60788036       0.13912676       0.16351085       1.23138127
Si       8.39445980       5.21710977       2.91197942      -1.31093788       0.74128555      -1.52327218
Si       6.88457991       6.69291014       1.40450981       0.48831163      -0.04619758      -0.05153493
Si       9.34495974       9.50043949       1.28085028       1.16573535       0.00172984       0.06477252
Si       6.86456015       9.45067958       4.11689998      -1.23529937       1.01507616      -1.31874941
Si       9.50009951       6.88569000       4.06404983       1.82846495      -2.22288143      -0.22476275
Si      10.96790001      10.66950024       5.27145019      -0.06254723       1.15459681       0.77767129
Si       2.76027965       2.63164967       5.58554012      -1.20976523       1.26124900      -0.68716254
Si       0.10105027       2.66913009       8.16615034      -0.05234200       0.56837809       0.82281292
Si       2.69708996      -0.08724901       8.03638963      -0.35622660       0.29689814       1.53782539
Si       1.30344976       1.25731993       6.75780951       0.25640661      -0.27707030      -0.11748887
Si       3.95677998       4.21103007       6.81722030       0.98180377      -1.35520662       0.14208533
Si       1.23754023       4.27464011       9.63265935       1.11275185      -1.39690632      -0.34527781
Si       4.01853045       1.45604022       9.45531983      -1.23132342      -0.96175585       0.53016996
Si       5.33715985      10.90040029       5.38472998       0.64998696      -0.80391248       0.15141021
Si       8.32964951       2.55000002       5.35997005      -1.38860628       1.22510572       0.52661772
Si       5.37756975       2.64707045       8.13774947       0.18477516       1.83477495      -1.29608179
Si       8.19790974       0.12814444       7.98008971      -0.12283343       0.65137896       1.66652659
Si       6.76002970       1.39146997       6.72079941      -0.01354509       0.05253484      -0.33489107
Si       9.66888955       3.99316985       6.78298002      -1.26818892       0.20273688      -0.09572963
Si       6.63240011       4.21335997       9.32463042       0.16737393      -1.44335998       1.43667074
Si       9.60312992       1.38554041       9.60944943      -0.79862552      -0.08443991      -1.20861158
Si      10.92139979       5.48929954       5.49378989      -0.80927118       0.23300468      -0.25325752
Si       2.74298951       7.95296947       5.40450968      -1.93161016       0.51351229       1.40139340
Si      10.70230022       8.22151938       8.24557980       0.15511671       0.12586784      -0.62741705
Si       2.78497006       5.48364044       8.29552002      -1.08778721       0.54803835       0.39468053
Si       1.21245987       6.74470016       7.03670982       1.32952619       0.52872705      -0.79181930
Si       3.96453002       9.40411962       6.71349037       1.02112339       0.46420368      -0.46782662
Si       1.29859010       9.46417018       9.57798982       0.89911992      -0.16276754      -0.98226040
Si       4.09262015       7.01079960       9.50627999       0.27323448      -1.35728382       0.92000242
Si       5.29694004       5.52807036       5.43167012       1.48782875      -0.61040380       0.13190685
Si       8.23443973       8.11167958       5.29369991      -1.27543763       1.20302663       2.85195222
Si       5.43081962       8.21553985       8.09942942       0.42656453       0.17783524      -0.63850699
Si       8.16109951       5.39665972       8.18585944       0.55405113      -0.02922959      -1.63659175
Si       6.84358020       6.81310034       6.77085042      -0.13505182      -0.14098747      -0.13885525
Si       9.48977952       9.66634024       6.72780975       0.57544760      -2.17593180      -0.66268307
Si       6.73031996       9.71605996       9.30405996       0.50491864      -0.57591528       0.25628962
Si       9.41462969       6.78394999       9.51441997      -0.27232842       0.89554557       1.01624241
