64
Lattice="10.862 0.0 0.0 0.0 10.862 0.0 0.0 0.0 10.862" Properties=species:S:1:pos:R:3:atomic_forces_forces:R:3:ltau_forces_uq_score:R:1 co-id=CO_1227596207302706912 energy_energy=-263.41265 energy_per_atom=F ltau_forces_uq_bins="_JSON [9.826158705261703e-06, 1.1027062170109953e-05, 1.2374733988202081e-05, 1.388711144604322e-05, 1.558432403465697e-05, 1.7488961369744564e-05, 1.9626373855691547e-05, 2.2025010095210678e-05, 2.4716795535485803e-05, 2.7737557390534585e-05, 3.1127501495435235e-05, 3.4931747439266745e-05, 3.92009290992939e-05, 4.399186856940476e-05, 4.9368332452677637e-05, 5.5401880584202616e-05, 6.217281848051923e-05, 6.977126619261002e-05, 7.82983577887071e-05, 8.786758743182653e-05, 9.860631996809534e-05, 0.00011065748613155361, 0.00012418148492831835, 0.00013935831852052977, 0.0001563899880250244, 0.00017550318211441527, 0.00019695229420541328, 0.00022102280839265498, 0.00024803509919425754, 0.0002783486956830725, 0.0003123670667585158, 0.00035054299125013993, 0.0003933845843281282, 0.00044146206043123326, 0.0004954153227255848, 0.0005559624801088134, 0.000623909405119375, 0.000700160459965258, 0.0007857305334337209, 0.0008817585488913106, 0.000989522623163398, 0.0011104570780553508, 0.001246171530935888, 0.0013984723184750493, 0.0015693865386831691, 0.0017611890312463712, 0.0019764326552623285, 0.0022179822673679007, 0.0024890528525018216, 0.0027932523148165534, 0.0031346294982791336, 0.003517728076107228, 0.003947647026299737, 0.004430108498181178, 0.0049715339732521865, 0.005579129734034302, 0.00626098277848512, 0.007026168456588584, 0.007884871261745434, 0.008848520384677058, 0.009929941834042498, 0.0111435291484686, 0.012505434972141823, 0.014033786043800957, 0.015748924460598036, 0.017673678428009317, 0.019833666099432202, 0.022257636549522425, 0.024977852419569537, 0.028030519327856575, 0.03145626776038425, 0.03530069385584423, 0.03961496628259934, 0.044456507285101664, 0.04988975696436252, 0.055987030964919623, 0.06282948298397104, 0.07050818491351256, 0.07912533899198845, 0.08879563809899231, 0.09964779229831235, 0.11182624194735377, 0.12549308017413968, 0.1408302103097339, 0.15804176699115657, 0.1773568331592601, 0.19903248911436056, 0.22335723421203718, 0.250654826741305, 0.2812885930932962, 0.31566626357475674, 0.3542453992302428, 0.3975394819030924, 0.44612474859288853, 0.5006478610735438, 0.5618345128533615, 0.6304990880342648, 0.7075555006279824, 0.794029358598705, 0.8910716145335489, 0.9999738846290095]" ltau_forces_uq_num_nearest_neighbors=1 ltau_forces_uq_index_type=IndexFlatL2 ltau_forces_uq_index_args=None pbc="T T T"
Si      10.87020000      -0.10323000      10.87150000      -0.88655100       0.66580900       0.66663200       0.47322729
Si       2.65429000       2.76148000       0.12119900      -0.18204800      -0.14381100      -1.66213000       0.50933956
Si       0.04534280       2.54229000       2.71367000      -0.31239300       1.28413000      -0.34221500       0.48266681
Si       2.75605000      10.79160000       2.77087000       0.49802300       1.29216000      -0.38615600       0.48877403
Si       1.37964000       1.19201000       1.34585000       0.32651700       0.56935500       0.57201200       0.50896856
Si       4.21562000       4.01445000       1.29038000      -1.57418000       0.52151400       1.83923000       0.47520451
Si       1.31004000       4.07703000       4.16101000       1.12994000      -1.50576000      -0.43038900       0.48898683
Si       4.02837000       1.46524000       4.07590000       0.20386000      -0.99345400      -0.12441300       0.53430318
Si       5.42942000       0.09102000      10.73210000      -0.09417730       0.75256500       1.56521000       0.49795997
Si       8.03093000       2.73118000      10.74770000      -0.71712800      -0.01946530       0.49944000       0.47932199
Si       5.47128000       2.80456000       2.83053000      -1.10349000      -1.51459000      -1.58371000       0.49419998
Si       8.24912000       0.04335200       2.70033000      -2.83275000      -2.02183000      -0.30126300       0.54621848
Si       6.75400000       1.36181000       1.51703000       0.22159500       0.54085200      -2.16486000       0.50845042
Si       9.50149000       3.95075000       1.23577000       0.82803100       0.00350040       1.61600000       0.47304201
Si       6.75336000       4.03738000       4.08794000       1.60796000       0.95839400       2.66533000       0.52069698
Si       9.54472000       1.15957000       3.99949000       2.11114000       1.30128000       1.04700000       0.52024720
Si      10.80890000       5.58420000       0.15166200      -0.60332700      -0.45660600      -0.74223300       0.49797217
Si       2.70755000       8.17841000       0.08917260       0.90001200       1.24654000       0.05410940       0.54691890
Si      -0.10318000       8.21411000       2.71054000       1.45285000      -0.56190800      -1.23777000       0.46700434
Si       2.74945000       5.35206000       2.75142000       0.16382500      -0.71547600      -0.60798300       0.48917032
Si       1.47140000       6.77984000       1.42370000      -1.55724000       0.67534000       0.91939400       0.52069698
Si       4.19122000       9.62619000       1.41131000      -0.60323100      -1.10562000      -1.53481000       0.47289624
Si       1.50346000       9.36500000       4.00708000      -0.90692800      -0.68456900       0.28921600       0.52709888
Si       4.00257000       6.79022000       4.03090000       1.76172000      -0.31602300      -1.35439000       0.48728360
Si       5.42106000       5.45370000       0.03575400       0.24645200       1.40867000      -1.37893000       0.50529373
Si       7.96258000       8.31024000      10.76690000       0.25222400      -1.85088000      -0.23721500       0.51235254
Si       5.47855000       8.10387000       2.60788000       0.14205200       0.23974100       1.92975000       0.49144152
Si       8.39446000       5.21711000       2.91198000      -2.03827000       1.14341000      -2.17926000       0.51455631
Si       6.88458000       6.69291000       1.40451000       0.86004500      -0.24488700      -0.05569180       0.47514917
Si       9.34496000       9.50044000       1.28085000       1.59877000       0.17006700       0.28374800       0.50141329
Si       6.86456000       9.45068000       4.11690000      -1.30424000       1.33504000      -1.81997000       0.47520451
Si       9.50010000       6.88569000       4.06405000       2.23076000      -2.44384000      -0.03554510       0.50698100
Si      10.96790000      10.66950000       5.27145000      -0.18565700       1.48784000       0.92486200       0.50943817
Si       2.76028000       2.63165000       5.58554000      -1.56925000       1.56720000      -1.14522000       0.52215505
Si       0.10105000       2.66913000       8.16615000      -0.05932230       0.65744900       1.07261000       0.52558093
Si       2.69709000      -0.08724870       8.03639000      -0.58513600       0.53754600       2.06512000       0.53869952
Si       1.30345000       1.25732000       6.75781000       0.38525000      -0.42929600      -0.31537200       0.45913274
Si       3.95678000       4.21103000       6.81722000       1.47516000      -1.67373000       0.47203400       0.51873165
Si       1.23754000       4.27464000       9.63266000       1.45131000      -1.94209000      -0.38831600       0.50733563
Si       4.01853000       1.45604000       9.45532000      -1.55868000      -1.36027000       0.55895700       0.51059981
Si       5.33716000      10.90040000       5.38473000       0.74381200      -1.08565000       0.20870600       0.50598304
Si       8.32965000       2.55000000       5.35997000      -1.55131000       1.74666000       0.51646800       0.47360722
Si       5.37757000       2.64707000       8.13775000      -0.09109210       2.26838000      -1.69453000       0.52290662
Si       8.19791000       0.12814400       7.98009000      -0.10482100       0.90961000       2.10979000       0.50068758
Si       6.76003000       1.39147000       6.72080000      -0.04528390       0.00842543      -0.61966300       0.51013946
Si       9.66889000       3.99317000       6.78298000      -1.76066000       0.38288600       0.10559800       0.51086496
Si       6.63240000       4.21336000       9.32463000       0.50518700      -1.81465000       2.00952000       0.51217215
Si       9.60313000       1.38554000       9.60945000      -1.11074000      -0.40496900      -1.77505000       0.55338483
Si      10.92140000       5.48930000       5.49379000      -1.22164000       0.22628400      -0.44785900       0.50902727
Si       2.74299000       7.95297000       5.40451000      -2.36204000       0.68335000       1.74220000       0.55989226
Si      10.70230000       8.22152000       8.24558000       0.25315500       0.16501700      -0.77157900       0.49430951
Si       2.78497000       5.48364000       8.29552000      -1.51363000       0.79973700       0.36868900       0.49149383
Si       1.21246000       6.74470000       7.03671000       1.85072000       0.97129700      -1.25129000       0.44931958
Si       3.96453000       9.40412000       6.71349000       1.45535000       0.58497500      -0.45792600       0.53966589
Si       1.29859000       9.46417000       9.57799000       1.18049000      -0.07023490      -1.27704000       0.49377131
Si       4.09262000       7.01080000       9.50628000       0.32975500      -1.93457000       1.18714000       0.49351495
Si       5.29694000       5.52807000       5.43167000       1.82299000      -0.85650600       0.02538340       0.51866049
Si       8.23444000       8.11168000       5.29370000      -1.18871000       1.40098000       3.52815000       0.49564396
Si       5.43082000       8.21554000       8.09943000       0.41290100       0.21864800      -0.87951600       0.49668282
Si       8.16110000       5.39666000       8.18586000       0.76229100       0.07419270      -2.28425000       0.48949210
Si       6.84358000       6.81310000       6.77085000      -0.22237300      -0.06145770      -0.30650600       0.49377131
Si       9.48978000       9.66634000       6.72781000       0.51352400      -2.94740000      -0.72479300       0.51640461
Si       6.73032000       9.71606000       9.30406000       0.61270100      -0.77125100       0.31413400       0.44780733
Si       9.41463000       6.78395000       9.51442000      -0.44405000       1.13193000       1.36140000       0.50331529
