64
Lattice="10.862 0.0 0.0 0.0 10.862 0.0 0.0 0.0 10.862" Properties=species:S:1:pos:R:3:atomic_forces_forces:R:3:kliff_descriptor_symmetry_function_descriptors:R:51 PBC="1 1 1" energy_energy=-261.89156 kliff_descriptor_symmetry_function_descriptor_type=symmetry_function kliff_descriptor_symmetry_function_cut_dists="{\"Si-Si\": 4.0}" kliff_descriptor_symmetry_function_cut_name=cos kliff_descriptor_symmetry_function_hyperparams=set51 pbc="T T T"
Si      10.89020000       0.01386430      10.91900000       0.18206300       0.05134730      -0.90903000       1.45926140       1.20893980       0.98324550       0.72370370       0.43674210       0.19605648       0.02675600       0.00050411       0.00526920       0.01473391       0.00266314       0.01212784       0.00404189       0.01131563       0.00204196       0.00931570       0.00255894       0.00717906       0.00129178       0.00591190       0.00134951       0.00379749       0.00068049       0.00312847       0.00027284       0.00241427       0.00000167       0.00070127       0.00054113       0.00152953       0.00027241       0.00126081       0.00010917       0.00097332       0.00000067       0.00028268       0.00008707       0.00024844       0.00004368       0.00020505       0.00001749       0.00015840       0.00000011       0.00004599       0.00000357       0.00001036       0.00000178       0.00000857       0.00000071       0.00000663       0.00000192
Si       2.78126000       2.67747000      -0.18782200       0.61041800      -0.19888000       1.68487000       1.52653705       1.25969342       1.02145690       0.75011188       0.45287130       0.20475242       0.02884650       0.00059432       0.00869930       0.02867437       0.00393814       0.02391322       0.00672770       0.02225402       0.00303990       0.01856622       0.00432019       0.01437791       0.00194567       0.01200339       0.00232463       0.00780329       0.00104203       0.00652068       0.00038635       0.00500820       0.00000223       0.00134710       0.00095974       0.00326172       0.00042725       0.00272923       0.00015790       0.00209769       0.00000090       0.00056378       0.00016396       0.00057132       0.00007195       0.00047931       0.00002641       0.00036891       0.00000015       0.00009898       0.00000749       0.00002730       0.00000320       0.00002300       0.00000116       0.00001775       0.00000475
Si      -0.01614280       2.76011000       2.79097000       0.98657700       0.78837900      -0.06801930       1.42600753       1.17766450       0.95446259       0.69887334       0.41819149       0.18529203       0.02453868       0.00043978       0.00397695       0.01392509       0.00184701       0.01179515       0.00304788       0.01069722       0.00141411       0.00906344       0.00192679       0.00679010       0.00089240       0.00575571       0.00101422       0.00359467       0.00046857       0.00304902       0.00018453       0.00240265       0.00000107       0.00071319       0.00040573       0.00144986       0.00018676       0.00123090       0.00007348       0.00097061       0.00000043       0.00028839       0.00006505       0.00023635       0.00002972       0.00020102       0.00001167       0.00015872       0.00000007       0.00004725       0.00000266       0.00000995       0.00000120       0.00000849       0.00000047       0.00000672       0.00000201
Si       2.73019000      10.90370000       2.58423000      -1.94026000       0.02789310       0.60508600       1.47995947       1.22321251       0.99297155       0.72961609       0.44001838       0.19800009       0.02742429       0.00054323       0.00590994       0.01974474       0.00273027       0.01656506       0.00454103       0.01522358       0.00209434       0.01277689       0.00288343       0.00972416       0.00132595       0.00816668       0.00152708       0.00519301       0.00069930       0.00436523       0.00027146       0.00338668       0.00000170       0.00094103       0.00061613       0.00212036       0.00028043       0.00178466       0.00010864       0.00138562       0.00000068       0.00038494       0.00010043       0.00035396       0.00004514       0.00029867       0.00001741       0.00023223       0.00000011       0.00006449       0.00000421       0.00001549       0.00000185       0.00001312       0.00000071       0.00001023       0.00000284
Si       1.35845000       1.48632000       1.27358000       0.07412170      -0.34292000       0.61169300       1.45732535       1.20435723       0.97713726       0.71692739       0.43073701       0.19221557       0.02588978       0.00047541       0.00614701       0.01739431       0.00303883       0.01428613       0.00472627       0.01338349       0.00233543       0.01099265       0.00300446       0.00851818       0.00148347       0.00699719       0.00159374       0.00452623       0.00078606       0.00371854       0.00030355       0.00285061       0.00000156       0.00080920       0.00064456       0.00183496       0.00031741       0.00150781       0.00012236       0.00115584       0.00000062       0.00032793       0.00010559       0.00030202       0.00005184       0.00024827       0.00001991       0.00019030       0.00000010       0.00005393       0.00000448       0.00001290       0.00000219       0.00001061       0.00000083       0.00000813       0.00000230
Si       3.98999000       4.04650000       1.40091000       0.78117800      -1.71219000      -1.23457000       1.55102806       1.28791585       1.05136802       0.77953701       0.47776538       0.22090677       0.03284231       0.00075533       0.01352793       0.02737710       0.00733071       0.02117988       0.01051952       0.02118984       0.00570672       0.01637704       0.00681915       0.01362543       0.00370628       0.01051256       0.00371793       0.00734447       0.00202605       0.00565259       0.00079543       0.00412496       0.00000398       0.00112937       0.00156407       0.00303903       0.00085552       0.00233048       0.00033613       0.00169595       0.00000167       0.00046361       0.00027740       0.00052109       0.00015287       0.00039656       0.00006015       0.00028690       0.00000030       0.00007818       0.00001353       0.00002392       0.00000756       0.00001794       0.00000298       0.00001283       0.00000348
Si       1.49983000       4.14850000       4.12259000      -1.57301000       0.55936100      -1.04164000       1.43546035       1.17791085       0.94893227       0.68978430       0.40917236       0.17977188       0.02365104       0.00043500       0.00528646       0.02202316       0.00213412       0.01887082       0.00406303       0.01700463       0.00163592       0.01457752       0.00258129       0.01088938       0.00103454       0.00934263       0.00136830       0.00583670       0.00054478       0.00501318       0.00019615       0.00394357       0.00000097       0.00110963       0.00055295       0.00239629       0.00021802       0.00206136       0.00007835       0.00162349       0.00000039       0.00045754       0.00009050       0.00040473       0.00003496       0.00034919       0.00001251       0.00027564       0.00000006       0.00007791       0.00000384       0.00001811       0.00000143       0.00001570       0.00000051       0.00001244       0.00000353
Si       4.03176000       1.33348000       3.99029000       2.12759000      -1.04895000      -0.23713700       1.50251100       1.25014075       1.02191082       0.75823047       0.46419145       0.21364814       0.03132590       0.00070588       0.00860793       0.01796319       0.00482422       0.01417948       0.00664645       0.01384700       0.00372678       0.01092733       0.00425594       0.00884165       0.00238838       0.00697410       0.00228060       0.00471940       0.00128131       0.00372012       0.00054136       0.00281329       0.00000413       0.00085214       0.00093571       0.00192571       0.00052655       0.00151654       0.00022263       0.00114637       0.00000170       0.00034752       0.00015771       0.00032110       0.00008902       0.00025240       0.00003769       0.00019063       0.00000029       0.00005788       0.00000702       0.00001403       0.00000398       0.00001099       0.00000169       0.00000829       0.00000252
Si       5.55468000      -0.21824700      11.01680000      -0.35860700       1.35464000      -1.10059000       1.47076438       1.21363708       0.98338037       0.72056068       0.43258198       0.19329246       0.02631907       0.00050341       0.00833809       0.02246255       0.00399581       0.01812027       0.00643203       0.01736810       0.00307934       0.01401541       0.00411203       0.01114820       0.00196526       0.00900142       0.00219861       0.00599428       0.00104822       0.00484389       0.00037291       0.00361561       0.00000148       0.00095238       0.00089929       0.00247155       0.00042723       0.00199950       0.00015170       0.00149349       0.00000060       0.00039302       0.00015067       0.00042076       0.00007107       0.00034116       0.00002514       0.00025516       0.00000010       0.00006702       0.00000664       0.00001906       0.00000309       0.00001552       0.00000109       0.00001163       0.00000304
Si       8.22312000       2.70469000      10.82620000       0.58963200      -0.33596700       0.55399200       1.47115657       1.21502929       0.98551591       0.72321441       0.43514628       0.19497156       0.02665656       0.00051186       0.00690528       0.02010607       0.00343619       0.01663697       0.00531828       0.01548368       0.00264660       0.01281200       0.00339069       0.00986989       0.00168748       0.00816668       0.00180598       0.00525554       0.00089889       0.00434845       0.00035316       0.00337359       0.00000186       0.00101518       0.00073466       0.00213695       0.00036571       0.00176800       0.00014363       0.00137165       0.00000075       0.00041294       0.00012174       0.00035374       0.00006062       0.00029262       0.00002379       0.00022702       0.00000012       0.00006840       0.00000526       0.00001525       0.00000262       0.00001261       0.00000103       0.00000978       0.00000295
Si       5.42798000       2.60222000       2.58812000      -0.70270200       1.21932000       0.85395600       1.53912102       1.27503054       1.03817445       0.76680534       0.46692227       0.21353457       0.03074709       0.00065143       0.00996836       0.02682839       0.00502854       0.02188857       0.00770895       0.02075900       0.00388765       0.01693771       0.00494975       0.01334184       0.00249488       0.01088697       0.00266260       0.00718689       0.00134106       0.00586535       0.00051936       0.00448715       0.00000282       0.00129789       0.00109852       0.00297117       0.00055267       0.00242532       0.00021377       0.00185553       0.00000115       0.00053643       0.00018724       0.00050858       0.00009399       0.00041533       0.00003627       0.00031778       0.00000019       0.00009177       0.00000850       0.00002327       0.00000425       0.00001902       0.00000163       0.00001455       0.00000419
Si       8.15987000       0.14953100       2.87656000       0.37195300      -0.92104800      -0.86099800       1.49249335       1.23168554       0.99825058       0.73187249       0.43991443       0.19696802       0.02687965       0.00050796       0.00701821       0.02420182       0.00318871       0.02037232       0.00540520       0.01876866       0.00244719       0.01581065       0.00344622       0.01210958       0.00155064       0.01021400       0.00183585       0.00655896       0.00081875       0.00554187       0.00031262       0.00431474       0.00000177       0.00119029       0.00074713       0.00273314       0.00032888       0.00231489       0.00012507       0.00180472       0.00000071       0.00049743       0.00012402       0.00047546       0.00005311       0.00040455       0.00002002       0.00031618       0.00000011       0.00008699       0.00000539       0.00002240       0.00000219       0.00001920       0.00000081       0.00001506       0.00000413
Si       6.88947000       1.38316000       1.36276000      -0.05630220      -1.21925000      -0.59868000       1.51386314       1.25786827       1.02682272       0.76046988       0.46425070       0.21268091       0.03068711       0.00065513       0.00913901       0.01975683       0.00494637       0.01556419       0.00706498       0.01524303       0.00382556       0.01200361       0.00453346       0.00974805       0.00245666       0.00767126       0.00243663       0.00521474       0.00132178       0.00409989       0.00053770       0.00304711       0.00000336       0.00082597       0.00100418       0.00213480       0.00054552       0.00167614       0.00022185       0.00124450       0.00000138       0.00033712       0.00017084       0.00035845       0.00009307       0.00028068       0.00003783       0.00020798       0.00000023       0.00005626       0.00000774       0.00001588       0.00000424       0.00001238       0.00000172       0.00000914       0.00000247
Si       9.45803000       4.13151000       1.46904000       1.00699000      -1.11436000      -1.90368000       1.49156993       1.22998054       0.99631392       0.73017331       0.43899528       0.19693400       0.02717397       0.00053897       0.00660183       0.02416179       0.00279976       0.02035972       0.00508021       0.01869222       0.00214754       0.01575955       0.00323437       0.01201070       0.00135956       0.01013590       0.00171963       0.00646890       0.00071701       0.00546628       0.00025300       0.00422467       0.00000136       0.00112426       0.00069797       0.00267478       0.00028756       0.00226437       0.00010092       0.00175190       0.00000054       0.00046577       0.00011529       0.00045861       0.00004631       0.00038964       0.00001607       0.00030206       0.00000008       0.00008014       0.00000498       0.00002114       0.00000190       0.00001807       0.00000065       0.00001405       0.00000371
Si       6.75772000       4.08235000       3.86126000      -0.29294700       0.06433020       0.31750300       1.53960915       1.27668908       1.04035588       0.76901762       0.46855185       0.21427766       0.03076225       0.00064000       0.01279016       0.02910832       0.00634837       0.02266653       0.01001522       0.02265965       0.00497337       0.01761780       0.00657252       0.01471879       0.00326653       0.01141280       0.00364794       0.00805074       0.00181527       0.00621807       0.00061327       0.00446329       0.00000254       0.00122816       0.00157613       0.00340475       0.00078580       0.00261442       0.00026330       0.00186485       0.00000103       0.00051128       0.00029605       0.00061179       0.00014823       0.00046397       0.00004891       0.00032648       0.00000017       0.00008881       0.00001615       0.00003078       0.00000816       0.00002279       0.00000263       0.00001561       0.00000418
Si       9.47112000       1.54313000       4.21992000      -0.42050200      -0.11165800      -0.72868600       1.54932156       1.29151775       1.05805329       0.78771084       0.48493786       0.22497624       0.03336164       0.00074023       0.01150014       0.02207692       0.00648573       0.01706251       0.00890430       0.01707625       0.00502262       0.01319458       0.00572891       0.01096793       0.00323240       0.00847142       0.00309025       0.00590277       0.00174423       0.00455675       0.00072313       0.00337465       0.00000473       0.00097033       0.00127979       0.00243709       0.00072269       0.00187999       0.00029946       0.00139157       0.00000195       0.00040019       0.00021968       0.00041606       0.00012415       0.00032053       0.00005139       0.00023703       0.00000033       0.00006818       0.00001008       0.00001895       0.00000570       0.00001457       0.00000236       0.00001076       0.00000310
Si      10.94500000       5.19720000      -0.11994500      -0.02621610       0.49535500       2.10796000       1.49968282       1.24004575       1.00737490       0.74131865       0.44856439       0.20319546       0.02873743       0.00060195       0.00995257       0.02496877       0.00506558       0.02008178       0.00769212       0.01932058       0.00391434       0.01554280       0.00493371       0.01241819       0.00250975       0.00999423       0.00264989       0.00669030       0.00134722       0.00538763       0.00051221       0.00407024       0.00000255       0.00116615       0.00109077       0.00276672       0.00055404       0.00222999       0.00021072       0.00168613       0.00000105       0.00048376       0.00018500       0.00047404       0.00009376       0.00038279       0.00003568       0.00028994       0.00000018       0.00008340       0.00000832       0.00002175       0.00000419       0.00001762       0.00000160       0.00001339       0.00000387
Si       2.58638000       8.08071000      -0.11452300       0.38705100      -1.84951000       0.19622500       1.50331031       1.25264888       1.02534485       0.76203207       0.46754713       0.21585978       0.03191582       0.00073426       0.01216676       0.01861480       0.00672752       0.01317556       0.00955551       0.01445191       0.00529127       0.01018767       0.00630413       0.00934699       0.00349939       0.00654225       0.00352617       0.00508543       0.00196388       0.00352314       0.00072165       0.00228969       0.00000257       0.00055264       0.00154144       0.00213764       0.00086242       0.00145863       0.00031587       0.00093218       0.00000108       0.00022267       0.00029697       0.00038155       0.00016756       0.00025213       0.00006101       0.00015526       0.00000019       0.00003625       0.00001702       0.00001931       0.00000972       0.00001202       0.00000351       0.00000685       0.00000153
Si       0.06982360       8.17006000       2.78204000      -0.10420300      -0.19635800      -0.51799800       1.50150441       1.25236656       1.02584662       0.76274161       0.46768121       0.21509881       0.03114772       0.00066125       0.01182567       0.01673889       0.00671953       0.01163274       0.00920704       0.01292929       0.00523659       0.00895883       0.00598121       0.00828567       0.00340737       0.00571184       0.00327129       0.00444667       0.00186769       0.00304307       0.00070693       0.00198187       0.00000292       0.00051245       0.00138265       0.00182985       0.00079178       0.00123897       0.00029918       0.00079789       0.00000121       0.00020551       0.00024774       0.00031116       0.00014266       0.00020609       0.00005373       0.00012956       0.00000021       0.00003309       0.00001233       0.00001420       0.00000716       0.00000903       0.00000268       0.00000541       0.00000136
Si       2.88711000       5.50084000       2.70204000      -2.34670000       0.13221800       0.87925600       1.52809722       1.26919751       1.03556808       0.76644950       0.46764702       0.21439881       0.03118567       0.00068715       0.01084011       0.02565297       0.00552651       0.02033936       0.00840984       0.02003290       0.00427797       0.01590102       0.00542989       0.01308413       0.00275122       0.01040546       0.00294423       0.00721248       0.00148322       0.00575147       0.00055821       0.00426417       0.00000250       0.00109673       0.00122909       0.00308486       0.00061382       0.00246958       0.00023040       0.00183532       0.00000103       0.00047064       0.00021482       0.00056724       0.00010526       0.00045767       0.00003928       0.00034175       0.00000017       0.00008714       0.00001025       0.00002973       0.00000483       0.00002431       0.00000178       0.00001830       0.00000462
Si       1.30127000       6.67581000       1.36891000       0.53984200       0.46249400      -0.58876000       1.40961069       1.15841212       0.93402225       0.67894539       0.40169826       0.17495177       0.02217101       0.00035860       0.00398819       0.01650960       0.00164582       0.01416723       0.00305106       0.01270174       0.00125478       0.01090546       0.00192284       0.00808303       0.00078606       0.00694626       0.00100774       0.00429396       0.00040846       0.00369468       0.00014839       0.00292288       0.00000068       0.00085059       0.00040059       0.00174007       0.00016036       0.00149983       0.00005803       0.00118790       0.00000026       0.00034598       0.00006340       0.00028609       0.00002473       0.00024741       0.00000887       0.00019639       0.00000004       0.00005729       0.00000253       0.00001219       0.00000094       0.00001060       0.00000033       0.00000844       0.00000247
Si       3.82455000       9.47458000       1.14800000       1.79829000      -0.48256800       2.32147000       1.53710301       1.27344767       1.03680062       0.76567693       0.46638120       0.21389343       0.03137003       0.00070897       0.01073589       0.02916344       0.00505109       0.02347863       0.00832188       0.02275727       0.00390413       0.01833952       0.00536581       0.01484740       0.00250446       0.01198606       0.00290467       0.00817568       0.00134553       0.00661654       0.00047728       0.00489472       0.00000274       0.00117326       0.00121034       0.00349467       0.00055419       0.00283853       0.00019570       0.00210491       0.00000111       0.00050334       0.00021117       0.00064396       0.00009419       0.00052698       0.00003293       0.00039272       0.00000018       0.00009349       0.00001012       0.00003426       0.00000427       0.00002841       0.00000146       0.00002136       0.00000505
Si       1.23909000       9.66969000       4.09826000       1.55061000       0.07113580      -0.06892890       1.44695312       1.19490649       0.96854507       0.70953362       0.42524753       0.18918261       0.02541370       0.00047213       0.00492227       0.01770001       0.00219542       0.01497316       0.00378671       0.01371170       0.00168180       0.01160679       0.00240994       0.00883222       0.00106235       0.00748463       0.00128092       0.00477488       0.00055857       0.00405254       0.00021309       0.00316272       0.00000124       0.00087840       0.00051995       0.00198621       0.00022309       0.00168934       0.00008463       0.00131922       0.00000049       0.00036445       0.00008607       0.00034543       0.00003566       0.00029502       0.00001336       0.00023064       0.00000008       0.00006303       0.00000376       0.00001644       0.00000145       0.00001413       0.00000053       0.00001106       0.00000297
Si       4.01030000       6.83218000       4.22558000       0.31914300      -0.37144500       1.10096000       1.47727439       1.21918827       0.98802682       0.72420912       0.43527766       0.19524645       0.02710773       0.00055606       0.01199671       0.02718099       0.00596999       0.02115426       0.00939241       0.02123105       0.00467483       0.01651347       0.00616185       0.01387381       0.00306780       0.01077975       0.00341818       0.00765506       0.00170245       0.00593933       0.00058483       0.00427067       0.00000143       0.00108404       0.00147545       0.00328000       0.00073522       0.00253977       0.00025187       0.00182195       0.00000060       0.00046036       0.00027640       0.00060609       0.00013785       0.00046753       0.00004698       0.00033390       0.00000011       0.00008364       0.00001497       0.00003216       0.00000748       0.00002466       0.00000253       0.00001749       0.00000432
Si       5.36971000       5.26522000       0.06187070      -0.58025400       1.15080000      -0.80361500       1.58139713       1.31472059       1.07460248       0.79821262       0.49066352       0.22790153       0.03415484       0.00078234       0.01280945       0.03052605       0.00676659       0.02448319       0.00993514       0.02377337       0.00524146       0.01907969       0.00641138       0.01545095       0.00337479       0.01241435       0.00347325       0.00845492       0.00182230       0.00680396       0.00074377       0.00513801       0.00000568       0.00141021       0.00144748       0.00357536       0.00075581       0.00288369       0.00030781       0.00218096       0.00000234       0.00059941       0.00025176       0.00064070       0.00013014       0.00051908       0.00005276       0.00039379       0.00000040       0.00010853       0.00001185       0.00003182       0.00000601       0.00002599       0.00000241       0.00001982       0.00000549
Si       8.32737000       8.01244000      10.94610000      -0.80532200       0.58889400       0.84156500       1.36899616       1.11905289       0.89704855       0.64658740       0.37755721       0.16139645       0.01971666       0.00030565       0.00661274       0.01948959       0.00269534       0.01557219       0.00513225       0.01504932       0.00209524       0.01201231       0.00331578       0.00963788       0.00135737       0.00767947       0.00179927       0.00516604       0.00073936       0.00410613       0.00019201       0.00292954       0.00000024       0.00071071       0.00075173       0.00212086       0.00031056       0.00167969       0.00008053       0.00119336       0.00000010       0.00028792       0.00013145       0.00035814       0.00005488       0.00028157       0.00001419       0.00019832       0.00000002       0.00004731       0.00000625       0.00001602       0.00000265       0.00001243       0.00000068       0.00000862       0.00000201
Si       5.16177000       8.16312000       2.79663000       0.36460100       0.46948200      -2.33516000       1.48305798       1.22145733       0.98797178       0.72250738       0.43306676       0.19370760       0.02677466       0.00054540       0.00753053       0.02573610       0.00327093       0.02147650       0.00582092       0.02002914       0.00251814       0.01672636       0.00373521       0.01300474       0.00160437       0.01087389       0.00200849       0.00710989       0.00085383       0.00595523       0.00031499       0.00452865       0.00000197       0.00108442       0.00082902       0.00300559       0.00034702       0.00252358       0.00012745       0.00192118       0.00000080       0.00045813       0.00014197       0.00054010       0.00005747       0.00045561       0.00002089       0.00034757       0.00000013       0.00008220       0.00000658       0.00002726       0.00000249       0.00002317       0.00000089       0.00001773       0.00000413
Si       8.07773000       5.53330000       2.60292000      -0.99138800       0.80603700       0.14139000       1.49452035       1.24118623       1.01225479       0.74826209       0.45508504       0.20718738       0.02948606       0.00061601       0.00988084       0.01813336       0.00534722       0.01359974       0.00767656       0.01401506       0.00415820       0.01049671       0.00496858       0.00899003       0.00269567       0.00671712       0.00270324       0.00482987       0.00146991       0.00359653       0.00056241       0.00251016       0.00000239       0.00061871       0.00113387       0.00198954       0.00061851       0.00147417       0.00023655       0.00102398       0.00000100       0.00025083       0.00019999       0.00033834       0.00010977       0.00024813       0.00004195       0.00017064       0.00000017       0.00004128       0.00000967       0.00001534       0.00000537       0.00001104       0.00000205       0.00000745       0.00000176
Si       6.50392000       6.83993000       1.27257000       1.88175000       0.33114200       1.08603000       1.44512682       1.18307716       0.95075351       0.68877465       0.40660063       0.17754414       0.02308292       0.00041518       0.00835034       0.02715614       0.00336417       0.02216997       0.00646299       0.02103525       0.00260174       0.01717400       0.00415564       0.01354472       0.00167055       0.01105962       0.00223986       0.00731557       0.00089859       0.00597431       0.00025650       0.00439294       0.00000047       0.00105404       0.00092670       0.00303608       0.00037066       0.00248004       0.00010548       0.00182326       0.00000019       0.00043615       0.00015882       0.00052384       0.00006312       0.00042815       0.00001785       0.00031467       0.00000003       0.00007481       0.00000727       0.00002432       0.00000286       0.00001990       0.00000080       0.00001462       0.00000344
Si       9.61098000       9.61312000       1.55252000      -1.27884000      -0.70380400      -1.10931000       1.43328349       1.17981874       0.95321528       0.69531257       0.41428516       0.18302971       0.02435579       0.00045261       0.00488477       0.02004341       0.00194249       0.01710113       0.00376377       0.01556248       0.00148817       0.01328688       0.00240195       0.01006336       0.00094023       0.00860164       0.00128174       0.00546955       0.00049455       0.00468236       0.00017518       0.00364533       0.00000103       0.00095189       0.00052333       0.00229205       0.00019766       0.00196638       0.00006945       0.00153232       0.00000041       0.00039882       0.00008770       0.00040422       0.00003166       0.00034818       0.00001092       0.00027179       0.00000006       0.00007029       0.00000391       0.00001965       0.00000130       0.00001703       0.00000043       0.00001333       0.00000341