256
Lattice="14.572361289605848 0.0 0.0 0.0 14.572361289605848 0.0 0.0 0.0 14.572361289605848" Properties=species:S:1:pos:R:3:momenta:R:3 timestep=100000 pbc="T T T"
Cu      14.69280000      14.47010000      -0.05923940      -1.02590225       1.51857858      -0.30494812
Cu       1.65697000       1.93657000      14.43940000       1.09207029      -0.29296179      -0.24540011
Cu       1.70815000      -0.09631730       1.72637000       1.80914737      -2.23727298      -0.16018579
Cu      -0.18566900       1.66468000       1.77592000      -0.09748400       0.90036540       0.44961534
Cu      14.60760000      -0.11215200       3.62012000       2.70211836      -0.36670215       1.43103595
Cu       1.78008000       1.69068000       3.50743000      -2.14640513      -1.30207684       1.68908355
Cu       1.76162000      -0.10565900       5.38715000       0.44388031      -0.08787644      -0.23976017
Cu      14.49680000       1.85264000       5.54767000       0.60931076      -1.49804500       0.32298777
Cu       0.00788961      14.39560000       7.33505000       2.28420778       0.09697875      -0.79564031
Cu       1.88096000       1.69174000       7.15613000       0.32288750       5.45130737      -2.11222133
Cu       1.87603000      -0.31221000       8.97652000       0.38620258      -0.72782906      -1.97520794
Cu       0.03031980       1.56759000       9.06525000       3.70327552       0.46690326       1.50810477
Cu       0.15112400      14.31980000      10.78070000      -0.59410531      -3.88242349       1.00437241
Cu       1.79470000       1.62237000      10.84190000      -1.07024286       1.46472162      -0.94073386
Cu       1.91222000      14.46760000      12.77670000       1.16599503      -2.94388919      -1.89679997
Cu      14.42580000       1.68218000      12.56080000      -2.81289872      -1.72234872      -3.07321705
Cu      14.59900000       3.53196000      14.52280000       0.36714530      -2.84430719      -0.52762933
Cu       1.75489000       5.31371000      -0.07254210       0.04778137       2.35726563      -0.28017456
Cu       1.76241000       3.49804000       1.66081000       0.68182584      -1.48653611       0.13328449
Cu       0.02776040       5.32995000       1.74548000      -3.43104720       0.36913008       0.07967983
Cu      14.62540000       3.54873000       3.69754000       1.33719223       1.02011869       0.24511676
Cu       1.62823000       5.37461000       3.59853000      -1.51324787       1.57821262      -2.14322224
Cu       1.60758000       3.59182000       5.57483000       0.92542749      -0.57266733      -1.30362301
Cu      14.37200000       5.54015000       5.52604000      -0.25623814       0.79203044       0.44943226
Cu      14.50860000       3.56843000       7.34718000       0.65201529      -2.00651290       1.51001969
Cu       1.79092000       5.40672000       7.26634000       4.62498316       0.80119097       0.72349463
Cu       1.66864000       3.65820000       9.00267000       1.70055363       1.04780731      -1.30327366
Cu      -0.12275900       5.41240000       9.15414000      -0.14625479       0.77596715       0.67985917
Cu      14.58030000       3.55452000      10.71120000       3.23190261       1.84012887       1.76022649
Cu       1.89722000       5.37510000      10.82860000       2.11345697      -0.22552512      -2.15658135
Cu       1.71767000       3.61043000      12.54520000       2.10223272       1.14022779      -4.25406560
Cu      14.66980000       5.46751000      12.66410000      -1.76082167       2.26978770      -2.85014898
Cu      14.44540000       7.24673000      14.57600000       0.56934858      -0.26028275       1.11625255
Cu       1.65579000       7.29142000       1.71408000       1.47614641       1.81885780      -1.38310488
Cu      14.47180000       7.40228000       3.41168000      -0.98780452      -0.46486608      -0.47088383
Cu       1.75967000       7.38622000       5.57832000       0.41294280       0.06596491      -0.43920235
Cu      14.52880000       7.28093000       7.22222000       2.62477783       2.45115464      -0.67386213
Cu       1.61120000       7.29762000       8.93142000      -1.23343106      -0.13957977      -2.55501932
Cu      14.49500000       7.26652000      10.76270000       1.57725516       0.05363415       1.25972231
Cu       1.83933000       7.33510000      12.80010000       1.38140992       0.03493146      -0.02901761
Cu       1.64251000       9.26825000       0.15784300       2.09941858      -0.25827338       0.03297307
Cu      14.41360000      10.90490000      14.44300000      -0.01824143       1.36036527       1.96056143
Cu      -0.20976100       9.26434000       1.77691000       1.41631182       1.56534517      -2.04297390
Cu       1.69391000      10.99760000       1.94608000      -2.93027131       0.45418008       1.29261225
Cu       1.82848000       9.04123000       3.68039000       0.31205141      -0.35524308       0.57103901
Cu      14.34780000      10.98770000       3.53148000      -0.43738901      -1.01282779      -0.71538859
Cu      -0.21429300       9.06875000       5.29308000      -0.42188726      -2.07647196       0.82923540
Cu       1.76152000      10.84550000       5.41660000      -2.33903513       3.27070550      -0.70010809
Cu       1.72975000       9.16892000       7.25594000       3.58524954       1.48654905      -0.09875975
Cu      -0.04407930      10.81160000       7.20616000       0.15032722      -0.55791279      -3.37219594
Cu      14.32950000       9.03982000       9.02194000      -1.05725897       1.91313496       0.75877174
Cu       1.91091000      10.62710000       9.04164000       0.50951981      -0.00071522       0.80444503
Cu       1.74422000       9.18604000      10.98360000      -2.55853862       1.05881160       2.69102997
Cu      -0.02565100      10.85790000      10.81530000       0.78829765       1.48266100       1.12896473
Cu       0.00861068       9.03612000      12.77190000      -2.20136834       2.28169769      -1.69247994
Cu       1.71221000      10.98080000      12.68310000      -0.59812404       1.58814300      -0.12193344
Cu       1.75645000      12.74280000      -0.12550900       1.78213803      -1.85903864       0.00393322
Cu      -0.04644530      12.65010000       1.81445000      -2.35689688      -0.13956165      -1.12675870
Cu       1.85809000      12.82290000       3.56849000      -1.04149327       2.21636419      -1.57954530
Cu      -0.05052020      12.68950000       5.43069000      -0.22875783       1.52371520       0.66860905
Cu       1.87276000      12.54030000       7.21451000       0.26915475      -1.55031051       0.43842151
Cu       0.04432730      12.55380000       9.05421000       0.73052029       3.62559859      -1.17752980
Cu       1.80417000      12.54990000      10.63740000      -1.14277023       1.32953257      -1.27051958
Cu      14.53000000      12.64140000      12.65490000      -0.31372308       1.72186352       2.43677985
Cu       3.54730000       0.18043400      14.47410000       3.45869701      -0.83705032       1.29989022
Cu       5.43585000       1.63386000      -0.16980300      -0.77005421       1.33141514       2.26089241
Cu       5.41103000      -0.06907810       1.93346000      -2.66764991      -0.54790219      -0.08633804
Cu       3.57951000       1.79672000       1.65826000      -1.48062964      -1.66079976      -1.00863568
Cu       3.56944000       0.02308700       3.66880000       0.03737304       0.23950981       2.22727144
Cu       5.37756000       1.80813000       3.60939000      -2.16164681      -1.53708078       2.22582878
Cu       5.35455000      14.51740000       5.41244000      -0.21372640       1.21821525       1.47930990
Cu       3.69894000       1.90299000       5.35542000      -1.55199900       0.60679873      -1.08915911
Cu       3.51048000      -0.21606400       7.06375000       1.08935965       3.59546457      -0.63669015
Cu       5.39288000       1.58662000       7.27129000       1.75721180      -0.59328241       0.60966140
Cu       5.27590000      14.43440000       8.99089000      -0.10688196       2.58242329       0.43860394
Cu       3.56552000       1.73107000       8.91176000       1.51437353      -1.80804759       0.83269001
Cu       3.56452000      -0.13641900      10.63300000       3.34117563      -1.37335564       0.20556408
Cu       5.44276000       1.77956000      10.79580000      -0.22345171      -0.06738880       0.03041543
Cu       5.31161000      -0.17586600      12.78930000       0.01404020       0.72663224      -0.49889074
Cu       3.59007000       1.76850000      12.57910000      -0.73090845       1.51194754      -1.56896799
Cu       3.56773000       3.49874000      14.35550000       1.04985808      -1.02588284       1.81002720
Cu       5.09032000       5.38189000      -0.18816900      -1.29378320       2.46234654       0.57772050
Cu       5.52477000       3.38965000       1.89295000      -2.94961453       0.41134359       0.04744652
Cu       3.46349000       5.35981000       1.90654000      -2.39633376       1.83885441      -2.44257635
Cu       3.57478000       3.54963000       3.44190000      -1.59195989      -0.24179218      -0.95779342
Cu       5.59949000       5.35353000       3.58699000      -0.24697215       0.68685896       0.53580912
Cu       5.45840000       3.64577000       5.33667000      -0.14778284       1.14725346       0.42692038
Cu       3.29043000       5.30045000       5.29800000      -0.56582798      -1.45567106       0.22287464
Cu       3.65108000       3.59036000       7.30204000      -0.48413102       0.63570294       1.15947397
Cu       5.29896000       5.55458000       7.05035000      -0.72921349      -0.35041762      -1.04074283
Cu       5.27232000       3.54929000       9.09684000      -0.18873871       2.62928046       1.12401572
Cu       3.75574000       5.41858000       9.01863000      -0.72940110      -0.62579843       0.38929296
Cu       3.48419000       3.55572000      10.63170000      -2.04593684      -1.38097001       3.00418958
Cu       5.39561000       5.53435000      10.91630000      -0.21832349      -2.05225088      -3.08994020
Cu       5.32216000       3.54867000      12.61860000       2.63600207      -0.43260496      -1.20938465
Cu       3.59298000       5.48955000      12.64330000       0.92433417      -1.89128812       1.14303547
Cu       3.52500000       7.29922000      -0.01108300      -0.73465418       1.69618685       1.58472074
Cu       5.55750000       7.14936000       1.88321000       1.67642960      -1.32523048       2.31421888
Cu       3.67910000       7.12840000       3.52015000      -3.38089716       1.57127753       0.94116083
Cu       5.42134000       7.43437000       5.19999000       2.88967642      -3.43853219       0.62709941
Cu       3.64663000       7.28256000       7.06362000       0.59766472      -1.44346348      -0.78041157
Cu       5.53838000       7.16018000       9.05005000      -0.96507785      -0.63775500       1.70325780
Cu       3.52214000       7.16041000      10.81630000      -0.53184990       0.16311315       0.24784098
Cu       5.33067000       7.14273000      12.73900000       0.80622409       0.56838400       0.01769976
Cu       5.31417000       8.91990000      -0.00798240      -0.47943884       2.71602089       0.97515703
Cu       3.49687000      10.89480000      14.68570000       0.64844423       0.38996707      -0.38265546
Cu       3.54948000       8.97881000       1.80617000       0.11585747      -0.75296878       1.38993646
Cu       5.43314000      10.72600000       1.63411000       1.10986735       3.80869930      -0.34725672
Cu       5.42047000       9.04484000       3.55099000       1.46518094      -2.44560398       0.66725697
Cu       3.53027000      10.85510000       3.41265000      -2.18826800      -2.06982151       0.17208349
Cu       3.58688000       9.11900000       5.44299000       0.40526179       0.24238089       0.92558275
Cu       5.27050000      10.88660000       5.31434000      -0.46929950      -0.12212752      -0.34306461
Cu       5.35348000       9.10397000       7.22142000       1.38153284      -1.36621352      -2.45291429
Cu       3.66794000      10.83840000       7.15021000      -2.25775480       1.30317662       0.61177816
Cu       3.58210000       8.87997000       9.07635000      -2.43230309      -0.03358927       0.26519942
Cu       5.37462000      10.97330000       9.04641000      -1.11428588       1.29006981      -0.94946095
Cu       5.36931000       8.86573000      10.79050000       1.28452562      -1.58094914      -1.70766340
Cu       3.55714000      10.87800000      10.81620000       1.95526307       0.47020261      -2.74738408
Cu       3.64653000       9.16079000      12.70260000       0.83177784       0.00297611      -1.62160871
Cu       5.57327000      10.90490000      12.60120000      -0.27416587       1.29793649       1.19436940
Cu       5.33793000      12.77670000      14.57790000       3.25887961      -1.51300850       0.14772009
Cu       3.48751000      12.79140000       1.70129000       0.33611787      -0.30777973      -2.96624711
Cu       5.32962000      12.68030000       3.62609000      -0.56503743      -1.58530298      -1.95358105
Cu       3.55361000      12.58220000       5.31126000      -2.67166734      -0.90290137      -1.58305813
Cu       5.57410000      12.66970000       7.21261000       2.32055233       0.36231855       0.31355165
Cu       3.57191000      12.53580000       8.95171000       0.05702168      -2.00653231       1.47432207
Cu       5.27296000      12.83590000      10.88910000       2.14232300      -0.77529435      -1.18484658
Cu       3.56953000      12.62020000      12.63050000      -1.26432198      -1.43218102       0.57955326
Cu       7.34363000       0.06580660      14.37210000      -2.11704743       0.12634292       0.55305434
Cu       9.04792000       1.88496000      14.35170000      -1.14335247      -2.14395327       1.24862745
Cu       9.06492000       0.03824460       1.72606000      -0.49018694       0.24848856       2.52749243
Cu       7.36905000       1.75167000       1.92588000      -0.28701715       0.32742701       0.12075215
Cu       7.26978000      14.61410000       3.60850000       1.36229313       0.53258740       2.63558157
Cu       9.07563000       1.73746000       3.59355000       0.66008898      -0.26573120      -0.34236269
Cu       8.87133000      14.36740000       5.65319000      -2.04100076       0.73874925      -0.46798687
Cu       7.17361000       1.86835000       5.54179000      -0.76515048       2.58621431      -1.75310379
Cu       7.13756000      -0.15374000       7.28119000      -0.82288902      -0.80923878      -0.53958719
Cu       8.97056000       1.83216000       7.26946000      -0.48824226       1.38274907       2.09806649
Cu       9.03931000      -0.19858700       8.91599000      -1.08713421       2.30771076       1.15564414
Cu       7.16449000       1.72750000       9.06662000       1.21324683       0.09126377      -0.40022868
Cu       7.17990000       0.09110030      10.74000000      -4.18294854      -2.09299456       0.07259530
Cu       9.06108000       1.83996000      10.65000000       1.72730420      -1.41656412       0.65499117
Cu       9.23863000       0.17839800      12.50450000      -0.33997616      -0.65123250      -1.77828879
Cu       7.00622000       1.71498000      12.57230000       0.90895017       0.44456799      -0.14481731
Cu       7.07804000       3.52016000      -0.26516800      -2.90907787      -0.23599310      -0.19327628
Cu       9.11701000       5.04823000      -0.20553100      -1.84166209      -0.68381839       0.44585021
Cu       9.11475000       3.44526000       1.72837000      -0.95545800      -0.59642779       1.86882023
Cu       7.43288000       5.09838000       1.64634000      -0.61470746       1.85814588      -0.48555168
Cu       7.33062000       3.59238000       3.67728000      -0.79355072      -0.62508034      -1.41122047
Cu       9.27678000       5.36601000       3.56340000      -1.23128325      -2.33816825       0.66682999
Cu       9.20586000       3.52852000       5.29710000       1.37877044      -3.10188254      -0.49935071
Cu       7.29783000       5.36160000       5.51554000      -1.86910488      -1.60556484       0.40540994
Cu       7.05992000       3.68062000       7.23992000      -3.62915670       1.58952096       2.90935605
Cu       9.04122000       5.24946000       7.23261000       3.18652044      -0.03383530       0.34465606
Cu       9.06290000       3.74494000       9.00092000      -1.21396492      -2.66281734      -3.40771889
Cu       7.07456000       5.32243000       9.15458000       0.69022947       3.49535208       1.12479203
Cu       7.21982000       3.59834000      10.71340000       2.33505651      -0.39819408      -0.76865684
Cu       9.06632000       5.49151000      10.92980000      -2.87338672       1.40030676      -5.07026536
Cu       8.99618000       3.48423000      12.51000000       1.42771720       0.50603673      -0.86428609
Cu       7.11222000       5.38444000      12.65460000      -1.17315008      -0.08590783      -0.57067673
Cu       7.23428000       7.17435000       0.05669260       0.20559966      -2.46944337      -1.97894720
Cu       9.26188000       7.12540000       1.78298000       2.20053380      -0.23727726       1.74240356
Cu       7.40511000       7.20514000       3.46635000       2.50523156      -2.42521920       2.50529625
Cu       9.13975000       7.35925000       5.43616000      -2.47165587       1.03258504      -2.09560169
Cu       7.19228000       7.18253000       7.26605000       1.71307173       1.76644996       0.81776533
Cu       9.02670000       7.18435000       9.14804000       0.36641556       0.08716158       0.76485936
Cu       7.30327000       7.34775000      11.03170000       1.57035889      -1.08223695       0.08363905
Cu       8.87852000       7.19993000      12.90030000       0.08507976       1.81841788       2.65836645
Cu       9.01003000       9.05616000      14.57730000      -1.74522418      -1.16318735      -0.18527569
Cu       7.32109000      10.89870000      -0.00251909      -2.37673177      -0.29279812       2.59309765
Cu       7.38068000       9.08194000       1.85897000       2.27022115      -1.22867612       0.38508015
Cu       9.08945000      11.03570000       1.86291000      -1.37882220      -0.85586953       1.86485455
Cu       9.21306000       9.13946000       3.44916000      -0.10609077       0.65035914      -1.26059566
Cu       7.18651000      10.98830000       3.46955000       1.03106475      -0.53803844      -0.38640960
Cu       7.25307000       9.02290000       5.07896000      -0.38406253       1.29168067       1.76190204
Cu       8.95311000      10.99860000       5.20369000      -0.87135057      -2.62253945       2.25471422
Cu       9.06676000       9.02185000       7.23579000       2.13063297      -4.09239122      -0.10497740
Cu       7.31428000      10.75950000       7.28159000       0.28997750       0.18820952      -3.14752995
Cu       7.19057000       9.00211000       9.09197000       0.51708566      -2.43203785       0.24223533
Cu       8.82641000      10.76850000       9.15613000      -2.02047366      -0.11597716      -0.99592349
Cu       9.16598000       9.14436000      11.06160000       2.09445662      -0.97452951       0.77665937
Cu       7.24784000      10.88180000      10.93380000       1.12737975       0.45462647      -0.82625952
Cu       7.04445000       9.08839000      12.83220000       0.12792402       1.15324403       0.17207508
Cu       9.02116000      11.02760000      12.74040000       0.56772543      -1.12988337       0.28184753
Cu       9.12577000      12.96160000      14.43300000       1.28763736      -2.15754528       0.59197950
Cu       7.20622000      12.55990000       1.65836000       0.52001366       1.96631264       1.06749988
Cu       8.98139000      12.93150000       3.58591000      -0.94425316       1.27505456      -0.45963500
Cu       7.26152000      12.64230000       5.37287000       1.45259167      -1.16595621       0.10743444
Cu       8.87882000      12.66830000       7.32150000      -2.97826707      -1.03514042       1.98269939
Cu       7.09410000      12.60990000       9.26903000      -2.70075334       1.00056199       0.04263931
Cu       9.07388000      12.84570000      10.80960000      -1.03120708      -1.82151668      -0.13547499
Cu       7.23157000      12.91580000      12.66840000      -0.95948837      -0.96380340      -0.87628018
Cu      10.95490000      -0.00809315      14.44890000      -2.97228297       0.11538198      -2.55954136
Cu      12.77740000       1.58937000      -0.11626500      -3.05838941       1.08915911      -1.66004932
Cu      12.70990000      14.47410000       1.79381000      -1.40271334       1.30097059       3.95703397
Cu      11.11730000       1.80179000       1.89474000       0.60313840       0.46322223      -1.32012620
Cu      10.74970000      -0.09667530       3.90367000      -1.40541104      -2.67967634       0.35210093
Cu      12.79790000       1.73946000       3.71505000      -1.88778823      -1.24092898       1.55002586
Cu      12.77150000      14.63300000       5.43553000       0.85697578       0.27932644       0.44696681
Cu      10.87410000       1.75579000       5.63624000       0.33471921       0.05743079      -0.83934693
Cu      10.85270000      -0.10813900       7.30598000       1.26441255      -0.40171273      -2.16733980
Cu      12.69910000       1.76196000       7.38029000       0.15901291       0.95177049       2.45185980
Cu      12.69660000      14.47350000       9.07509000      -1.65242201       2.36372847      -2.36498998
Cu      10.84760000       1.86156000       8.97951000      -0.83113738       0.30415045      -2.09607395
Cu      10.99740000       0.04066790      10.69030000       1.15781783       1.78270086       2.79719772
Cu      12.74850000       1.68748000      10.91630000       0.82884078      -2.08047645       1.00961901
Cu      12.70390000      14.39860000      12.78320000      -0.51372033      -1.04381575       0.90070181
Cu      10.92670000       1.83328000      12.72400000       1.05545403      -2.29436459      -0.52247459
Cu      11.11160000       3.49023000      14.44030000       2.73328747       0.58389028       4.17906049
Cu      12.92190000       5.44530000      -0.01857620      -2.22301463       0.84763410       0.55834300
Cu      12.97710000       3.57312000       1.79396000       1.07404681      -1.96722482      -2.24762387
Cu      11.05140000       5.30379000       1.71948000      -1.13012921      -1.40664668      -1.16280566
Cu      11.22600000       3.65864000       3.52498000      -0.22105418      -0.07104784      -1.51483932
Cu      12.80550000       5.48214000       3.53790000      -1.38551793      -1.05409548       0.52896847
Cu      12.72060000       3.70481000       5.53029000       2.35894765       1.21408784      -2.48473680
Cu      10.89330000       5.47504000       5.57994000      -0.71160405      -1.08069079      -1.64010445
Cu      10.93180000       3.48791000       7.28239000       1.20669342      -0.83914638       0.67575763
Cu      12.49540000       5.41216000       7.40330000      -0.29832032      -0.09771496       1.05982081
Cu      12.60290000       3.65910000       9.21861000      -1.00226988       0.85096580       0.02111659
Cu      10.90080000       5.47422000       9.24501000       3.74429091      -2.52262105       1.22253028
Cu      11.03980000       3.45357000      10.98030000       0.81943441      -0.74023072       0.67147495
Cu      12.78660000       5.46296000      10.90260000      -2.21051594      -1.01809380       0.97671613
Cu      12.92390000       3.69220000      12.77920000      -0.51283597      -1.00019970       4.02071133
Cu      11.09790000       5.24558000      12.74890000      -0.38079553       1.27949897      -1.66833650
Cu      10.76240000       7.04566000      -0.08408500       1.03580675      -0.36837188       1.50805302
Cu      12.60560000       7.21185000       1.77726000       3.70446587      -0.54022636      -0.19639125
Cu      10.99840000       7.39677000       3.54894000       2.49105084       3.68111815      -2.90450407
Cu      12.56750000       7.09805000       5.53716000       2.26900492       3.58927344       0.49722942
Cu      10.71800000       7.39247000       7.42799000       0.68813341      -1.65081115       1.93887633
Cu      12.55150000       7.26023000       8.99635000      -0.04745972      -0.26384669      -2.83738504
Cu      11.00280000       7.19166000      10.93230000      -1.52538428      -1.76830665      -3.07595357
Cu      12.67860000       7.12843000      12.77700000       1.38785335      -1.34565408       0.20840928
Cu      12.66300000       9.30181000      14.62960000       1.79897115       1.89108111       2.62383978
Cu      10.76980000      11.21630000      14.48970000      -1.09418575      -2.50655776       1.47102919
Cu      10.90910000       9.08130000       1.71947000      -0.80276948      -1.03896377      -1.74424731
Cu      12.58750000      11.06920000       1.89074000       0.47339845       1.24577449      -1.00461824
Cu      12.47720000       9.08410000       3.70640000      -0.01955671      -0.16781051       1.18821062
Cu      10.90200000      10.96210000       3.64800000       0.64108863      -1.33516733       0.70990262
Cu      10.80150000       9.00460000       5.41633000       0.18055440       0.27072550       1.89586839
Cu      12.68710000      10.87410000       5.31971000       1.17133221      -2.49306280       1.17395874
Cu      12.54680000       9.11354000       7.21210000      -0.12227955       0.93626357      -2.21792329
Cu      10.77270000      10.90350000       7.32570000       0.29764104       1.81968587      -0.91494721
Cu      10.74750000       9.09844000       9.24317000      -2.65049331       1.12708217      -0.29770314
Cu      12.61800000      10.79790000       9.15727000       0.43010263       1.72225815       0.43765037
Cu      12.78920000       9.17702000      11.06100000       1.38150696      -0.56561061      -1.23000879
Cu      10.90550000      10.84230000      10.85450000      -2.53307544      -0.20486345       1.05928386
Cu      10.84180000       8.97618000      12.75650000       1.51143646       0.41426642       2.65152840
Cu      12.56170000      10.90360000      12.79070000       0.01023425       0.81587629       1.54845382
Cu      12.81830000      12.68900000      14.50380000      -1.31735087       0.85947293      -0.16000789
Cu      10.75730000      12.86660000       1.76008000       0.84504638       0.63651742       0.49631984
Cu      12.64400000      12.74860000       3.69572000       1.15546300       0.21015017      -2.81075091
Cu      10.76550000      12.68090000       5.44824000      -1.08967018       3.15256954      -0.66985763
Cu      12.76660000      12.60520000       7.20192000      -1.19655602      -1.72373962       0.12694845
Cu      10.94630000      12.62410000       9.03890000       0.27129286      -0.23778510      -0.95597554
Cu      12.82080000      12.73520000      11.03610000      -0.87906198       0.76319028       0.42408294
Cu      10.74440000      12.67810000      12.42270000      -0.52687954      -0.84620439       0.02799281
