64
Lattice="10.862 0.0 0.0 0.0 10.862 0.0 0.0 0.0 10.862" Properties=species:S:1:pos:R:3:atomic_forces_forces:R:3:quests_descriptor_descriptors:R:63 PBC="1 1 1" energy_energy=-262.6728 quests_descriptor_num_nearest_neighbors=32 quests_descriptor_cutoff=5.0 quests_descriptor_species="_JSON [\"species-agnostic\"]" pbc="T T T"
Si      10.85710000       0.04135860      10.75050000       0.18517200      -1.42186000       1.36386000       0.27617664       0.25706289       0.25223207       0.22814926       0.06064475       0.05714541       0.05493970       0.05365544       0.04859888       0.04847030       0.04571417       0.03968461       0.03913720       0.03572758       0.03501296       0.03187462       0.01811890       0.01497397       0.01216383       0.01197704       0.01188773       0.01073159       0.01006309       0.00711232       0.00668903       0.00619349       0.00288193       0.00196773       0.00000000       0.00000000       0.00000000       0.00000000       0.08749020       0.06184476       0.05986724       0.05149116       0.04671112       0.04262585       0.03440773       0.03242394       0.03003645       0.02736287       0.02568919       0.02361720       0.02273574       0.02160278       0.02023787       0.01909445       0.01824153       0.01671833       0.01547955       0.01379860       0.01288125       0.01147873       0.01047153       0.00944246       0.00841460       0.00717588       0.00535004       0.00000000       0.00000000       0.00000000       0.00000000
Si       2.68827000       2.54804000      -0.10146700       0.71828600       1.30935000       0.60228800       0.25134468       0.25123164       0.24152294       0.21905417       0.06762581       0.05714541       0.05121731       0.05046297       0.04515153       0.04339791       0.03925142       0.03530233       0.03239569       0.03177696       0.02992589       0.01725133       0.01521695       0.01511913       0.01504374       0.01160485       0.00791960       0.00630394       0.00581773       0.00516157       0.00379627       0.00350230       0.00219350       0.00100320       0.00000000       0.00000000       0.00000000       0.00000000       0.08100815       0.05688957       0.05477394       0.04663242       0.04241233       0.03780908       0.03200696       0.02939945       0.02628524       0.02422796       0.02236746       0.02127398       0.02026066       0.01928307       0.01797728       0.01662070       0.01545135       0.01405069       0.01233888       0.01146769       0.01037395       0.00899979       0.00807980       0.00725244       0.00655213       0.00533492       0.00374875       0.00000000       0.00000000       0.00000000       0.00000000
Si       0.12234500       2.68721000       2.83351000      -0.82789200       0.53277000      -0.67570700       0.26763933       0.25870901       0.25712827       0.23993946       0.05254148       0.04976137       0.04943279       0.04473859       0.04436184       0.04428868       0.04156365       0.04143377       0.03925142       0.03773941       0.03501296       0.03415734       0.01658569       0.01449644       0.01211554       0.00966208       0.00926870       0.00884735       0.00597629       0.00594728       0.00526625       0.00481710       0.00373305       0.00285841       0.00000000       0.00000000       0.00000000       0.00000000       0.08490850       0.06003037       0.05729080       0.04923842       0.04394667       0.04040842       0.03204147       0.03067532       0.02846582       0.02559384       0.02379164       0.02272803       0.02105373       0.02022579       0.01928791       0.01805662       0.01710577       0.01570336       0.01385647       0.01227323       0.01128029       0.01038419       0.00922377       0.00849048       0.00781321       0.00696167       0.00580556       0.00000000       0.00000000       0.00000000       0.00000000
Si       2.66113000      10.77600000       2.56459000       1.31216000       0.25596200       1.23595000       0.28286724       0.26009501       0.26008016       0.23501645       0.05829671       0.05595143       0.05201729       0.05121731       0.04943279       0.04930228       0.04859888       0.04424416       0.04344930       0.04034395       0.03795553       0.02947140       0.01468310       0.01381118       0.01175643       0.01150454       0.01148045       0.00867683       0.00867151       0.00489119       0.00440376       0.00438724       0.00351293       0.00252386       0.00000000       0.00000000       0.00000000       0.00000000       0.08820656       0.06191610       0.05937335       0.05117500       0.04648953       0.04276611       0.03449526       0.03230087       0.03018579       0.02773593       0.02556493       0.02353697       0.02209676       0.02112106       0.02036451       0.01879100       0.01752548       0.01648526       0.01450669       0.01297973       0.01139316       0.01035467       0.00952268       0.00873718       0.00761879       0.00688034       0.00573310       0.00000000       0.00000000       0.00000000       0.00000000
Si       1.32418000       1.28421000       1.38388000      -0.12625700       0.80456100      -1.08841000       0.28286724       0.25870901       0.25706289       0.25134468       0.05470600       0.04983926       0.04843576       0.04740044       0.04606427       0.04461000       0.04347746       0.04183580       0.03558770       0.03521125       0.03445321       0.03023820       0.01547274       0.01285580       0.01158394       0.01127625       0.01024402       0.00993554       0.00739981       0.00739257       0.00604487       0.00309450       0.00270093       0.00125764       0.00000000       0.00000000       0.00000000       0.00000000       0.08463193       0.06100915       0.05789899       0.04906776       0.04432944       0.04005225       0.03175422       0.03052904       0.02885969       0.02580586       0.02396245       0.02232959       0.02093765       0.01988572       0.01904454       0.01808577       0.01683964       0.01549953       0.01400314       0.01262949       0.01163666       0.01032404       0.00923453       0.00848123       0.00719592       0.00610049       0.00427482       0.00000000       0.00000000       0.00000000       0.00000000
Si       4.08030000       4.11655000       1.31129000      -1.24774000      -1.80469000       1.73467000       0.28456882       0.22468392       0.21905417       0.21640574       0.05753485       0.05433739       0.05074485       0.05053430       0.04089918       0.03991978       0.03588886       0.03558770       0.03529392       0.03369732       0.03094871       0.02167224       0.01583694       0.00884735       0.00831410       0.00753480       0.00752344       0.00737601       0.00649955       0.00619255       0.00580315       0.00531538       0.00489119       0.00416136       0.00000000       0.00000000       0.00000000       0.00000000       0.08035029       0.05643677       0.05300944       0.04572685       0.04183342       0.03694074       0.03081712       0.02858824       0.02545503       0.02404241       0.02200332       0.02083753       0.01996351       0.01869182       0.01762949       0.01619068       0.01494567       0.01379439       0.01272182       0.01138123       0.01023241       0.00952999       0.00858681       0.00808383       0.00765630       0.00685289       0.00627502       0.00000000       0.00000000       0.00000000       0.00000000
Si       1.33915000       4.11715000       4.25500000       1.05393000      -0.88973200      -0.04239670       0.26645084       0.26334421       0.25712827       0.23613522       0.06233750       0.05721197       0.05317779       0.05164927       0.04938645       0.04039083       0.03991571       0.03737952       0.03454576       0.03094871       0.03023820       0.02822889       0.02251801       0.02074378       0.01123276       0.00990592       0.00876924       0.00872462       0.00653754       0.00480663       0.00374935       0.00252386       0.00100320       0.00072959       0.00000000       0.00000000       0.00000000       0.00000000       0.08417518       0.05990837       0.05638516       0.04949991       0.04423524       0.03941274       0.03192038       0.02996288       0.02784393       0.02541078       0.02364078       0.02227870       0.02133399       0.02027134       0.01880366       0.01734891       0.01649848       0.01524662       0.01404133       0.01206933       0.01043437       0.00933792       0.00877452       0.00707368       0.00556535       0.00415092       0.00329512       0.00000000       0.00000000       0.00000000       0.00000000
Si       4.19928000       1.24519000       3.93564000      -1.11945000       0.84177700      -1.81312000       0.29209222       0.26125556       0.24179388       0.23501645       0.06334049       0.04527455       0.04347746       0.04305056       0.04289388       0.04189290       0.04188251       0.03991978       0.03951882       0.03862026       0.03114984       0.02822889       0.01869980       0.01452255       0.01372207       0.01155296       0.00926870       0.00791960       0.00722894       0.00682322       0.00651368       0.00423959       0.00401767       0.00216066       0.00000000       0.00000000       0.00000000       0.00000000       0.08526093       0.06057202       0.05669226       0.04853692       0.04350099       0.03995864       0.03200953       0.02962523       0.02768313       0.02608434       0.02358799       0.02236323       0.02102423       0.01971239       0.01911374       0.01819842       0.01696691       0.01580680       0.01420034       0.01300390       0.01169893       0.01028531       0.00948583       0.00863109       0.00789591       0.00711995       0.00544335       0.00000000       0.00000000       0.00000000       0.00000000
Si       5.44875000      -0.12606900      10.88730000       1.38871000      -0.10621300      -1.21953000       0.28674753       0.27281753       0.26060972       0.24945211       0.06502886       0.04977784       0.04930228       0.04869364       0.04593405       0.04339791       0.04296199       0.04015229       0.03885652       0.03773178       0.03721809       0.03548459       0.01568774       0.01452255       0.01109080       0.00995280       0.00858903       0.00832323       0.00781444       0.00604487       0.00490789       0.00418001       0.00416136       0.00363526       0.00000000       0.00000000       0.00000000       0.00000000       0.08755302       0.06200623       0.05937939       0.05060013       0.04529935       0.04154123       0.03349553       0.03121531       0.02879285       0.02635221       0.02493062       0.02352128       0.02162220       0.02049608       0.01949207       0.01869431       0.01726551       0.01607878       0.01436511       0.01248563       0.01130426       0.01033560       0.00947528       0.00863145       0.00766340       0.00710500       0.00652982       0.00000000       0.00000000       0.00000000       0.00000000
Si       8.19065000       2.63131000      10.87030000      -1.21394000       0.87575600      -0.32057000       0.28402645       0.27623212       0.26581040       0.23838675       0.06229858       0.05365544       0.05220420       0.04733655       0.04630179       0.04380874       0.04272032       0.04121621       0.04015229       0.03934594       0.03415734       0.02828863       0.01180760       0.01024402       0.00943612       0.00931867       0.00821414       0.00752676       0.00706320       0.00654466       0.00619255       0.00482880       0.00271900       0.00253833       0.00000000       0.00000000       0.00000000       0.00000000       0.08601323       0.06136747       0.05766599       0.04986078       0.04513445       0.03999443       0.03283491       0.03057923       0.02780007       0.02585416       0.02405857       0.02239119       0.02136481       0.02019761       0.01881080       0.01764365       0.01602160       0.01465841       0.01313914       0.01162344       0.01054777       0.00975284       0.00909882       0.00834210       0.00769806       0.00662561       0.00528773       0.00000000       0.00000000       0.00000000       0.00000000
Si       5.64753000       2.64317000       2.58819000      -1.57371000      -0.08298130      -0.56630600       0.26317624       0.24272990       0.24179388       0.22468392       0.06229858       0.05730920       0.05029783       0.04869364       0.04826529       0.04782263       0.04623805       0.03853398       0.03239569       0.02947140       0.02872739       0.02843374       0.02150434       0.01517589       0.00981750       0.00957998       0.00944697       0.00865104       0.00771181       0.00642642       0.00486346       0.00309450       0.00079817       0.00072959       0.00000000       0.00000000       0.00000000       0.00000000       0.08241564       0.05830279       0.05568186       0.04867450       0.04349108       0.03878206       0.03213511       0.02989943       0.02760681       0.02572361       0.02368667       0.02174691       0.02094640       0.01968009       0.01883199       0.01735514       0.01595231       0.01483338       0.01395759       0.01189044       0.01055128       0.00970400       0.00885273       0.00757057       0.00653560       0.00403364       0.00317303       0.00000000       0.00000000       0.00000000       0.00000000
Si       8.22598000       0.03288050       2.83549000       0.48088500      -2.13679000       0.45088500       0.27959708       0.24461640       0.22494283       0.22067568       0.05976168       0.05730920       0.05389402       0.05019143       0.04980639       0.04473859       0.04380874       0.04069007       0.03949434       0.03838828       0.03572758       0.03548459       0.01558481       0.01502687       0.01423714       0.01416229       0.01372207       0.01158394       0.01030713       0.00694935       0.00541302       0.00512351       0.00466618       0.00113274       0.00000000       0.00000000       0.00000000       0.00000000       0.08661222       0.06118310       0.05763818       0.05086866       0.04654233       0.04140246       0.03395389       0.03256312       0.03048683       0.02731544       0.02541644       0.02405529       0.02254593       0.02129513       0.02043821       0.01967630       0.01875249       0.01730986       0.01546355       0.01347951       0.01245960       0.01174875       0.01086914       0.00957294       0.00832872       0.00731589       0.00457406       0.00000000       0.00000000       0.00000000       0.00000000
Si       6.98708000       1.11241000       1.28074000      -1.36285000       1.68749000       0.32952100       0.27959708       0.26581040       0.26060972       0.24272990       0.06063699       0.05769712       0.05698360       0.05235706       0.04382029       0.04351089       0.04289388       0.03732778       0.03468809       0.03374321       0.02830548       0.02167224       0.01930196       0.01811890       0.01655674       0.01533332       0.01011586       0.00911758       0.00597629       0.00412445       0.00351293       0.00344894       0.00219350       0.00066411       0.00000000       0.00000000       0.00000000       0.00000000       0.08464161       0.06053111       0.05858161       0.05003740       0.04457786       0.03962914       0.03276602       0.03058902       0.02859088       0.02606814       0.02368587       0.02224030       0.02109964       0.02039366       0.01954855       0.01824599       0.01690597       0.01524866       0.01407824       0.01277025       0.01145253       0.00997072       0.00870239       0.00743741       0.00636093       0.00534441       0.00340814       0.00000000       0.00000000       0.00000000       0.00000000
Si       9.45202000       3.91512000       1.40095000       2.40284000       0.24844400       0.11650200       0.27799063       0.27623212       0.24041078       0.23993946       0.05752575       0.05497256       0.05479657       0.05235706       0.04948672       0.04740044       0.04733277       0.03893476       0.03454576       0.03162446       0.02884841       0.02712915       0.02150434       0.01502687       0.01291327       0.01197704       0.00934502       0.00756588       0.00581773       0.00539064       0.00406965       0.00328276       0.00229755       0.00106455       0.00000000       0.00000000       0.00000000       0.00000000       0.08493119       0.06038225       0.05777276       0.05011903       0.04473074       0.03935226       0.03279692       0.03023332       0.02869800       0.02674589       0.02385798       0.02241897       0.02131699       0.02029328       0.01944444       0.01768692       0.01663111       0.01530173       0.01403529       0.01213041       0.01090449       0.00982789       0.00871549       0.00780430       0.00635439       0.00554774       0.00407147       0.00000000       0.00000000       0.00000000       0.00000000
Si       6.76234000       4.18109000       3.93649000       0.19940900      -0.35631300       1.46487000       0.27466814       0.26317624       0.24763950       0.24202562       0.05951643       0.05479657       0.05136283       0.05074485       0.04397271       0.04303601       0.04041637       0.03951882       0.03854643       0.03274685       0.03241571       0.02830548       0.01665139       0.01569854       0.01156779       0.01005197       0.00943612       0.00795186       0.00694935       0.00537193       0.00510240       0.00481710       0.00261757       0.00113914       0.00000000       0.00000000       0.00000000       0.00000000       0.08400841       0.06017460       0.05707301       0.04897207       0.04375578       0.03988298       0.03231777       0.03054952       0.02809285       0.02525643       0.02376609       0.02240875       0.02091884       0.01999242       0.01897409       0.01744404       0.01643140       0.01512862       0.01376082       0.01272493       0.01083859       0.00980619       0.00904530       0.00836219       0.00715526       0.00599271       0.00436388       0.00000000       0.00000000       0.00000000       0.00000000
Si       9.63793000       1.41494000       4.21485000      -1.27325000      -0.24160500      -0.01211240       0.26763933       0.25438059       0.24461640       0.23541591       0.06581459       0.05417224       0.05321592       0.05317779       0.05178284       0.04948672       0.04732522       0.04606427       0.03468809       0.03241571       0.02864451       0.02727871       0.02472899       0.01303579       0.01150614       0.01133560       0.00920438       0.00867683       0.00865104       0.00792512       0.00608428       0.00560974       0.00482880       0.00288193       0.00000000       0.00000000       0.00000000       0.00000000       0.08576049       0.06166445       0.05931377       0.05103217       0.04616262       0.04175781       0.03445203       0.03216213       0.02966687       0.02741707       0.02588517       0.02357863       0.02206690       0.02105524       0.01998325       0.01863219       0.01729556       0.01624769       0.01525269       0.01365789       0.01224402       0.01073347       0.00998046       0.00930512       0.00857817       0.00753273       0.00637693       0.00000000       0.00000000       0.00000000       0.00000000
Si      10.98460000       5.28453000       0.10728600       0.36378200      -0.38895400       0.73092900       0.26920121       0.24216781       0.24041078       0.22882841       0.05235802       0.05113570       0.05046297       0.04976137       0.04358363       0.04272032       0.04067233       0.03919572       0.03711214       0.03215544       0.03172789       0.02843968       0.01583694       0.01449591       0.01429744       0.01285580       0.01141774       0.00897818       0.00876924       0.00756876       0.00594649       0.00301368       0.00296463       0.00084679       0.00000000       0.00000000       0.00000000       0.00000000       0.08308634       0.05876875       0.05508651       0.04818059       0.04344481       0.03910702       0.03161016       0.03026857       0.02797048       0.02532889       0.02338054       0.02181280       0.02071636       0.01991526       0.01871045       0.01787600       0.01673300       0.01562727       0.01441532       0.01328790       0.01152499       0.01051579       0.00955899       0.00867605       0.00741695       0.00593766       0.00374412       0.00000000       0.00000000       0.00000000       0.00000000
Si       2.48972000       8.16498000      -0.10538400       1.27988000      -1.04097000       1.48504000       0.29172707       0.27387331       0.26584777       0.24190352       0.05638391       0.05493970       0.05235802       0.05201729       0.04200370       0.03991063       0.03889052       0.03851147       0.03773178       0.03758295       0.03568756       0.02397873       0.02126384       0.02084766       0.01787169       0.01127625       0.01038141       0.00887765       0.00683728       0.00580315       0.00576510       0.00549867       0.00402510       0.00255671       0.00000000       0.00000000       0.00000000       0.00000000       0.08670523       0.06350024       0.05908490       0.05075042       0.04553309       0.04090072       0.03342349       0.03119534       0.02883932       0.02649201       0.02491437       0.02323815       0.02232776       0.02092578       0.01986485       0.01883771       0.01782971       0.01616952       0.01490171       0.01384077       0.01245648       0.01101745       0.00995632       0.00901799       0.00806351       0.00737515       0.00599020       0.00000000       0.00000000       0.00000000       0.00000000
Si      -0.04986100       8.31916000       2.80243000       1.89021000      -2.74247000      -1.42931000       0.29353451       0.28915956       0.28449730       0.21634947       0.06448354       0.05976168       0.05829671       0.05125009       0.04706649       0.04674354       0.04200370       0.04115181       0.03968461       0.03785201       0.03153103       0.02843968       0.01547274       0.01303579       0.01125009       0.00906314       0.00792861       0.00771201       0.00699529       0.00594385       0.00378173       0.00374935       0.00350402       0.00106455       0.00000000       0.00000000       0.00000000       0.00000000       0.08697250       0.06240299       0.05889769       0.05016050       0.04553785       0.04115273       0.03351165       0.03145804       0.02901083       0.02659551       0.02416728       0.02292036       0.02172570       0.02025865       0.01944874       0.01786381       0.01643232       0.01506017       0.01346235       0.01192069       0.01081707       0.00960221       0.00906937       0.00796430       0.00708841       0.00588375       0.00424863       0.00000000       0.00000000       0.00000000       0.00000000
Si       2.76031000       5.46190000       3.01631000       0.70631900      -1.43743000      -2.14674000       0.28243061       0.27290703       0.26645084       0.21640574       0.06919852       0.05343678       0.05306630       0.04985078       0.04486741       0.04436184       0.04082357       0.03711214       0.03153103       0.02872739       0.02397873       0.02058065       0.01725133       0.01569854       0.01256092       0.00925429       0.00919001       0.00887427       0.00651368       0.00514252       0.00270093       0.00229755       0.00169430       0.00000591       0.00000208       0.00000000       0.00000000       0.00000000       0.08221823       0.05890473       0.05583640       0.04668921       0.04193152       0.03799422       0.03171524       0.02898049       0.02634060       0.02404351       0.02303957       0.02134399       0.02000624       0.01863696       0.01754886       0.01649545       0.01548506       0.01402219       0.01296663       0.01121689       0.01020841       0.00948695       0.00789597       0.00666539       0.00556955       0.00451118       0.00033892       0.00017183       0.00000000       0.00000000       0.00000000
Si       1.50743000       6.72692000       1.57750000      -2.56675000       1.17412000      -1.09218000       0.27290703       0.24190352       0.22882841       0.21634947       0.06556474       0.05753485       0.05417694       0.05391317       0.05164927       0.04953482       0.04691543       0.04189062       0.04037141       0.02884841       0.02430904       0.02316689       0.01746510       0.01687461       0.01468310       0.01295539       0.01257023       0.00966208       0.00867174       0.00379627       0.00279943       0.00251622       0.00196773       0.00177009       0.00000000       0.00000000       0.00000000       0.00000000       0.08449441       0.05877558       0.05629565       0.04881469       0.04458069       0.04037045       0.03379542       0.03106019       0.02880294       0.02685587       0.02432114       0.02256881       0.02111311       0.02037565       0.01957068       0.01800163       0.01690366       0.01533838       0.01371180       0.01263881       0.01125829       0.01028846       0.00892123       0.00708174       0.00618058       0.00544661       0.00459183       0.00000000       0.00000000       0.00000000       0.00000000
Si       3.96232000       9.47420000       1.11585000      -0.29755300      -0.62998700       1.82692000       0.28674753       0.26584777       0.26009501       0.25017475       0.06580348       0.06243986       0.06045951       0.05417694       0.05164288       0.04983926       0.04671546       0.04189290       0.03887514       0.03732778       0.03546053       0.02949613       0.01623478       0.01521695       0.01313370       0.01307369       0.01188773       0.00972988       0.00792861       0.00514252       0.00486346       0.00426299       0.00253690       0.00113274       0.00000000       0.00000000       0.00000000       0.00000000       0.08945122       0.06337414       0.06110712       0.05317645       0.04705902       0.04291131       0.03506212       0.03304763       0.03053403       0.02831530       0.02615041       0.02396871       0.02265332       0.02160101       0.02043242       0.01962811       0.01820412       0.01664047       0.01449131       0.01305722       0.01195599       0.01067856       0.00975492       0.00843552       0.00740894       0.00650611       0.00435173       0.00000000       0.00000000       0.00000000       0.00000000
Si       1.30856000       9.56679000       4.04624000       1.37419000      -0.09111440       0.28758000       0.28915956       0.28621688       0.26093000       0.26008016       0.05470600       0.05417224       0.04953482       0.04877586       0.04822029       0.04817498       0.04599849       0.04305056       0.03891608       0.03889372       0.03642692       0.03546053       0.01449644       0.01423714       0.01321008       0.00895100       0.00887427       0.00843830       0.00810552       0.00721007       0.00683728       0.00683299       0.00619349       0.00243992       0.00000000       0.00000000       0.00000000       0.00000000       0.08954468       0.06404442       0.06035468       0.05235319       0.04637676       0.04219811       0.03347989       0.03242507       0.02979818       0.02709054       0.02544778       0.02418716       0.02227952       0.02134761       0.02020831       0.01896848       0.01786246       0.01667881       0.01471561       0.01329236       0.01204767       0.01122799       0.01027002       0.00944382       0.00870630       0.00791829       0.00611078       0.00000000       0.00000000       0.00000000       0.00000000
Si       4.04819000       6.95598000       4.10067000       0.03019790       0.78832700       0.69335800       0.28243061       0.26823241       0.25581948       0.24916097       0.06556474       0.06505800       0.05600748       0.04817498       0.04705263       0.04397482       0.04041637       0.03887514       0.03856676       0.03737952       0.03369732       0.03185678       0.01529873       0.01522888       0.01381118       0.01172696       0.01103881       0.01001114       0.00771201       0.00766475       0.00402510       0.00265563       0.00252693       0.00079817       0.00000000       0.00000000       0.00000000       0.00000000       0.08734608       0.06205398       0.05916314       0.05124165       0.04641158       0.04052058       0.03430024       0.03175906       0.02956907       0.02698587       0.02483003       0.02321987       0.02204785       0.02063876       0.01969793       0.01842655       0.01724258       0.01623964       0.01481158       0.01299711       0.01159727       0.01057885       0.00937549       0.00845142       0.00688777       0.00533271       0.00379755       0.00000000       0.00000000       0.00000000       0.00000000
Si       5.35080000       5.53702000       0.12934400      -0.59122600      -0.02577700      -3.23545000       0.28853567       0.28456882       0.23442645       0.21984764       0.05714104       0.05571727       0.04623805       0.04316352       0.04082357       0.03991063       0.03783251       0.03650670       0.03177696       0.02959690       0.02828863       0.02648224       0.01687461       0.01665139       0.01623478       0.01229871       0.01103881       0.00704185       0.00564827       0.00539064       0.00472833       0.00283545       0.00231639       0.00066411       0.00000000       0.00000000       0.00000000       0.00000000       0.08204638       0.05903062       0.05476060       0.04682729       0.04220918       0.03755296       0.03080792       0.02849813       0.02653028       0.02427012       0.02250922       0.02093831       0.01997381       0.01920537       0.01829541       0.01682244       0.01600281       0.01482928       0.01352954       0.01215773       0.01102550       0.00987961       0.00841142       0.00723291       0.00631089       0.00551706       0.00328292       0.00000000       0.00000000       0.00000000       0.00000000