64
Lattice="10.862 0.0 0.0 0.0 10.862 0.0 0.0 0.0 10.862" Properties=species:S:1:pos:R:3:atomic_forces_forces:R:3 energy_energy=-271.17277672942305 cauchy_stress_stress="-0.0023353469245589987 -0.0028573668008259716 -0.00046128999118646015 -0.003551159120796165 0.00128560385452227 -0.0022209052434489502" pbc="T T T"
Si      10.72310000       0.28177000      10.78030000      -0.93558068      -0.57445557      -0.39053684
Si       2.70350000       2.70680000       0.03685430      -0.06553240      -0.32030761      -0.70711446
Si       0.09584860       2.59830000       2.81112000      -0.79348950       0.56649393       0.63839966
Si       2.81072000      10.83850000       2.66985000      -0.16167304      -0.61917142      -0.45517695
Si       1.32945000       1.32505000       1.37813000       1.04376445       0.05729957      -0.24386844
Si       4.01037000       4.11597000       1.34974000       0.83695756      -0.42627987       0.05157722
Si       1.39045000       4.02570000       4.15255000       0.49854303      -0.45556265       0.42226108
Si       4.18430000       1.38854000       3.94094000      -1.31834750      -0.77377847       1.56683006
Si       5.48617000       0.01030720      10.79610000      -1.52992301       0.57171481      -1.28476749
Si       8.18336000       2.80209000      10.89930000       0.20336311      -0.82919610      -0.16294058
Si       5.42597000       2.71828000       2.61261000       1.24511770       0.71088621      -0.15599991
Si       8.13817000      -0.13108200       2.48971000       0.64679680       1.56466216       1.77647561
Si       6.77832000       1.31033000       1.25171000       0.64866756       1.07010532       0.51352477
Si       9.62247000       4.02015000       1.54049000      -1.05448292      -1.15338438      -0.44984306
Si       6.85162000       4.05940000       4.03820000      -1.54254270       0.41594808      -0.44641829
Si       9.42440000       1.34418000       4.11135000       0.74858140      -1.26415821      -0.14544881
Si      10.94380000       5.19996000       0.16897500      -0.64999455       3.09565128      -0.64253870
Si       2.73899000       8.25597000      -0.04287800      -0.95519624      -0.63650589       0.21313078
Si       0.05888120       7.96576000       2.71954000      -0.12194316       1.41131431      -1.21424141
Si       2.79085000       5.40837000       2.84196000      -0.40310226       0.24347122      -0.07663940
Si       1.54635000       6.67188000       1.30596000      -0.92781784       0.60044678       0.77175955
Si       4.21862000       9.42977000       1.27574000      -1.41960459       1.86679805      -0.00101845
Si       1.41592000       9.47354000       4.05934000      -0.31231647       0.00239714       0.24439894
Si       4.02327000       6.89928000       4.18971000       1.66352921      -1.20321086      -1.50324648
Si       5.39580000       5.40466000      -0.05102410      -1.28072686       1.70510856       1.28167266
Si       8.00113000       8.15082000      10.91740000       0.90017249      -0.38231169      -0.45227536
Si       5.40033000       8.15148000       2.67308000       0.44263899      -0.95205820       1.35322509
Si       8.18194000       5.38471000       2.73789000      -0.43284892       0.06149312      -0.74669439
Si       6.74064000       6.74544000       1.40922000      -0.06661245      -0.58340181      -0.30329699
Si       9.52965000       9.48198000       1.15533000       1.19940658      -0.66811570       1.38332157
Si       6.85931000       9.45652000       3.95447000      -2.40297583       1.72091504       0.09252239
Si       9.49743000       6.64693000       4.06567000       0.27916957       1.32634605       0.26817832
Si      10.96920000      10.84680000       5.57614000      -1.35350093      -0.27397019      -2.40044939
Si       2.79839000       2.58982000       5.50542000      -0.51677753       0.25595102      -1.77201043
Si       0.04355170       2.89707000       8.02261000       0.75515526      -2.10998649       1.22716996
Si       2.62139000      -0.11471100       8.22613000       0.97221518       0.71750481      -0.64436432
Si       1.42300000       1.31347000       6.86971000      -0.38330255       0.79548899       0.29390911
Si       4.01883000       4.07859000       6.69812000       1.80797936       0.65318346       0.49630646
Si       1.33003000       4.07506000       9.57259000       1.25048239      -0.65822020      -1.27875712
Si       4.03381000       1.44975000       9.32371000       0.19826756      -1.28752775       2.19696208
Si       5.36216000      10.88900000       5.47144000       2.96936624       0.93089686      -1.49105203
Si       8.16760000       2.87557000       5.43039000       0.60717601      -1.32568541       0.41597489
Si       5.45689000       2.82295000       8.13306000      -0.47235578       0.63603070      -0.08902744
Si       8.15403000      -0.01542370       7.98942000      -0.73400836      -0.34508062       0.04059181
Si       6.84907000       1.56080000       6.82744000      -0.81322485      -1.87700320      -1.26824439
Si       9.47650000       4.12875000       6.90168000      -1.04751023       1.65387652      -1.31410640
Si       6.74227000       4.10350000       9.63491000       0.50731737      -0.58492441      -1.33394573
Si       9.34211000       1.54364000       9.15481000       1.32291801       0.36735824       2.37551533
Si      10.85620000       5.40148000       5.46999000      -0.55202050      -0.81618940      -0.04444493
Si       2.73447000       8.14031000       5.50848000      -2.03036148       0.01791935       0.67629303
Si      10.81570000       8.11898000       8.42669000      -0.83798814      -0.24482970      -2.89487436
Si       2.68773000       5.39230000       8.06992000      -0.05704126      -0.02370592       1.56866030
Si       1.24214000       6.67990000       6.87425000       0.70138729       2.51089166       0.04643866
Si       4.07079000       9.55066000       6.72552000      -0.52554835      -0.84939239       2.07724899
Si       1.14879000       9.62775000       9.63678000       1.55523607      -0.53850054       0.17326159
Si       3.99230000       6.84900000       9.45768000       0.85511758      -0.67520069      -0.41970657
Si       5.51342000       5.49091000       5.38981000      -0.98261036      -0.55890688       0.49526926
Si       8.05812000       8.12280000       5.23923000       1.28410304      -1.68383072       2.39423194
Si       5.45761000       8.18018000       8.13615000      -1.14479297       0.71427174       0.34023571
Si       8.03431000       5.47625000       8.28202000       1.63411244      -0.20464996       0.32260377
Si       6.75877000       6.79627000       6.90236000       0.70132043       0.44900258      -2.01597374
Si       9.47323000       9.40654000       6.66946000       0.67060728      -0.47499551       1.42359109
Si       6.82427000       9.54338000       9.48645000      -0.01049430      -0.09922419      -0.85099832
Si       9.48909000       6.75633000       9.73883000      -0.31322146      -1.21970494       0.05847951
