64
Lattice="10.862 0.0 0.0 0.0 10.862 0.0 0.0 0.0 10.862" Properties=species:S:1:pos:R:3:atomic_forces_forces:R:3 co-id=CO_2257349896453190445 energy_energy=-341.7236 energy_per_atom=F cauchy_stress_stress="_JSON [0.012155133677007402, 0.012491821276237661, 0.012000232527672145, 0.006156251359525518, -0.005592870213975351, 0.002709527116824597]" cauchy_stress_volume_normalized=F pbc="T T T"
Si       0.14660000      10.67880000       0.09120000      -0.40276100       0.83218800      -0.36794200
Si       2.75251000       2.69713000      10.81830000      -0.55047100       0.74213900       0.45480600
Si      10.82660000       2.90940000       2.55964000       0.14891800      -1.17413000       0.64209100
Si       2.75523000       0.04780000       2.80034000      -1.20764000       0.37617300      -0.66570500
Si       1.35504000       1.40639000       1.34641000       0.22123500      -0.25870000       0.25279100
Si       4.11021000       3.99425000       1.45168000       0.06679780       0.60205400      -1.13299000
Si       1.32444000       4.16837000       3.97543000       0.13883900      -0.32663000      -0.42068200
Si       3.88953000       1.35734000       4.19899000       1.47053000       0.57658300       0.57164100
Si       5.38381000       0.06838430       0.07620000       0.30035800      -0.39760600       0.76247600
Si       8.17948000       2.66672000      10.84190000      -0.48427800       0.40661800      -0.35580300
Si       5.37067000       2.68529000       2.89864000      -0.54469200       0.37462100       0.27344200
Si       7.99640000       0.06049160       2.78319000       0.46145400       0.78278500      -0.81098200
Si       6.65027000       1.64549000       1.37730000       0.83440600      -2.21716000      -0.09410850
Si       9.39034000       4.13680000       1.27785000       0.05526380       0.42621700      -0.06703140
Si       6.78850000       4.08667000       4.09481000       0.66711600      -0.59956500       0.19676100
Si       9.54605000       1.45297000       4.01673000      -0.31225900      -0.26701100      -0.10380400
Si      10.63340000       5.54645000      10.73370000       1.15531000      -0.17276700      -0.00258066
Si       2.92452000       8.13570000       0.06217200      -1.20654000       0.36370500      -0.01407500
Si       0.01471430       8.12860000       2.74983000      -0.71822000       0.63749400       0.04718320
Si       2.71915000       5.44838000       2.63142000      -0.79738900       0.20279000      -0.71244900
Si       1.24512000       6.89692000       1.21161000       0.66158700      -0.76678700       0.36877100
Si       4.04158000       9.56108000       1.55545000       1.10542000      -0.66441000      -1.02964000
Si       1.45612000       9.52993000       4.08831000      -0.77059800      -0.66645900       0.11292300
Si       4.10490000       6.68607000       3.97026000      -0.60648000      -0.87956500       1.28994000
Si       5.55331000       5.49933000       0.04094180       0.12256400      -1.56684000       0.37661100
Si       8.23813000       8.12656000      10.70160000      -0.78087500       1.14463000       0.88520500
Si       5.37023000       7.98130000       2.79049000       1.14064000       1.70678000      -1.52347000
Si       8.07152000       5.48892000       2.68478000       0.58698000      -0.56506200       0.63016400
Si       6.90315000       6.88493000       1.34555000      -0.46701200       0.19851400      -0.40660600
Si       9.39963000       9.62921000       1.37771000       0.38582900      -1.26290000       0.24811100
Si       6.68265000       9.45394000       3.98776000       0.96360400      -0.36611500       1.26608000
Si       9.45471000       6.71489000       4.15474000       0.21877000       0.68639800      -0.97258100
Si       0.04310000       0.07190000       5.38432000      -0.37546300      -0.40465600       0.17563300
Si       2.52117000       2.83123000       5.42443000       0.86271200      -0.33793600       0.75731100
Si       0.05806350       2.57699000       8.32115000      -0.38870700       1.09162000      -0.83917800
Si       2.72671000       0.04406590       8.15366000      -0.33493800       0.23408300      -0.13743700
Si       1.29035000       1.39592000       6.87107000       0.70492800      -0.41217300      -0.93142700
Si       4.04968000       4.08105000       6.87056000      -0.59265700      -0.08395660      -0.52303700
Si       1.29288000       4.10888000       9.45046000       0.47640800       0.48690800       1.21258000
Si       4.04895000       1.29027000       9.55524000       0.23345300       0.63715000      -0.44139000
Si       5.50078000      10.82680000       5.44775000      -1.90191000      -0.66337300      -0.86195800
Si       8.14007000       2.63068000       5.53000000      -0.29987100       0.15208000      -0.70597200
Si       5.37005000       2.68379000       8.16182000      -0.04855900      -0.27418900       0.02298690
Si       8.06158000       0.06207040       8.29689000       0.70984800      -0.26689100      -0.99976100
Si       6.62542000       1.27917000       6.78232000       1.70322000       0.95777600       1.08837000
Si       9.63021000       3.91835000       6.80076000       0.64938000      -1.05982000      -0.49429100
Si       6.79147000       4.01576000       9.41845000       0.57577200       0.47089000       0.40186100
Si       9.64342000       1.30227000       9.63233000      -0.96285600      -1.05001000       0.40308200
Si      10.77550000       5.29372000       5.32823000       0.82109500       0.76789700       1.01569000
Si       2.83141000       8.04738000       5.33514000       0.03503750       1.20597000       0.11940600
Si       0.20320000       8.19536000       7.96393000      -0.44066100      -0.56337100       0.45504900
Si       2.80881000       5.47677000       8.30809000      -0.98979800      -0.31723000      -1.45535000
Si       1.49989000       6.72289000       6.57147000      -0.91011800      -0.77295100       1.50181000
Si       3.98732000       9.56507000       6.82377000       1.14386000      -1.13172000      -0.60974900
Si       1.52314000       9.47582000       9.47149000      -0.38325900      -0.67171800       0.56853800
Si       4.18167000       6.71737000       9.60980000      -0.16205100       0.65108200      -0.20825500
Si       5.38427000       5.31073000       5.40193000       0.08591570       0.87789400       0.49492400
Si       8.28513000       8.12936000       5.54741000      -1.48442000       0.35405200      -1.23852000
Si       5.39908000       8.12538000       8.23622000       0.12702900       0.05245150      -1.38911000
Si       8.30747000       5.21096000       7.94442000      -2.06545000       1.97803000       1.33674000
Si       6.81523000       6.75264000       6.67385000      -0.27867400      -0.40470500       1.18005000
Si       9.52411000       9.52390000       6.80601000       0.30570700       1.24022000       0.50813400
Si       6.68071000       9.53750000       9.55098000       0.55939900      -0.20680300       0.30731600
Si       9.44365000       6.87850000       9.22167000       0.76921200      -0.44459400      -0.41257800
