64
Lattice="10.862 0.0 0.0 0.0 10.862 0.0 0.0 0.0 10.862" Properties=species:S:1:pos:R:3:atomic_forces_forces:R:3:kliff_descriptor_symmetry_function_descriptors:R:51 PBC="1 1 1" energy_energy=-264.18824 kliff_descriptor_symmetry_function_descriptor_type=symmetry_function kliff_descriptor_symmetry_function_cut_dists="{\"Si-Si\": 4.0}" kliff_descriptor_symmetry_function_cut_name=cos kliff_descriptor_symmetry_function_hyperparams=set51 pbc="T T T"
Si      11.07690000      -0.23627300      10.97520000      -0.08875280      -0.14661500      -0.71459200       1.61684838       1.34296030       1.09655487       0.81341041       0.49928441       0.23187208       0.03495263       0.00081453       0.02319684       0.04618724       0.01171520       0.03470560       0.01833142       0.03646035       0.00925422       0.02738316       0.01221999       0.02425815       0.00616491       0.01820307       0.00693071       0.01371907       0.00349356       0.01028192       0.00117120       0.00709000       0.00000364       0.00171362       0.00308652       0.00608285       0.00155424       0.00455056       0.00051827       0.00313011       0.00000153       0.00075396       0.00061460       0.00119929       0.00030906       0.00089375       0.00010206       0.00061166       0.00000027       0.00014642       0.00003689       0.00007050       0.00001854       0.00005215       0.00000604       0.00003536       0.00000839
Si       2.63813000       2.76067000      -0.01216010       1.84393000      -0.92568600       0.00649916       1.43636138       1.19093513       0.96921508       0.71381738       0.43107455       0.19380619       0.02673314       0.00053185       0.00466287       0.01269672       0.00241388       0.01044773       0.00358439       0.00976306       0.00185563       0.00803430       0.00227777       0.00620725       0.00117925       0.00510874       0.00120770       0.00329331       0.00062531       0.00271092       0.00025339       0.00210965       0.00000169       0.00065975       0.00048814       0.00133222       0.00025278       0.00109686       0.00010249       0.00085382       0.00000068       0.00026723       0.00007989       0.00021830       0.00004139       0.00017980       0.00001680       0.00014003       0.00000011       0.00004389       0.00000338       0.00000925       0.00000175       0.00000762       0.00000071       0.00000594       0.00000187
Si      -0.09799430       2.79426000       2.61849000       0.01877040       0.14322700      -1.34912000       1.41741535       1.16743548       0.94376562       0.68889891       0.41070864       0.18140846       0.02406676       0.00044512       0.00531459       0.01705197       0.00257051       0.01430790       0.00409738       0.01313814       0.00198256       0.01102332       0.00261709       0.00838263       0.00126714       0.00703268       0.00139769       0.00447043       0.00067733       0.00375007       0.00026267       0.00295098       0.00000125       0.00093209       0.00057090       0.00182251       0.00027699       0.00152861       0.00010742       0.00120308       0.00000051       0.00038086       0.00009547       0.00030379       0.00004642       0.00025474       0.00001800       0.00020057       0.00000009       0.00006379       0.00000421       0.00001333       0.00000205       0.00001118       0.00000080       0.00000881       0.00000283
Si       2.65653000      10.92750000       2.62646000       0.43980600       0.00080267       2.12582000       1.48282563       1.22837209       0.99926154       0.73616679       0.44562124       0.20169431       0.02845367       0.00059429       0.00642158       0.02066547       0.00307617       0.01732006       0.00496285       0.01610819       0.00236726       0.01351260       0.00318395       0.01048931       0.00150726       0.00881261       0.00171194       0.00576027       0.00080147       0.00484980       0.00032745       0.00376983       0.00000265       0.00102613       0.00070683       0.00245237       0.00032539       0.00207093       0.00013235       0.00161153       0.00000108       0.00043645       0.00012128       0.00044795       0.00005380       0.00038047       0.00002165       0.00029667       0.00000018       0.00007956       0.00000567       0.00002338       0.00000233       0.00002004       0.00000092       0.00001568       0.00000414
Si       1.33535000       1.34158000       1.27880000      -0.47717000       1.32840000       0.95661100       1.56279004       1.29767630       1.05896729       0.78447362       0.47995110       0.22139922       0.03280837       0.00074808       0.01363178       0.03199215       0.00686259       0.02522296       0.01068854       0.02512444       0.00537214       0.01980804       0.00703123       0.01657599       0.00352381       0.01306858       0.00391639       0.00927450       0.00195462       0.00731273       0.00072567       0.00531347       0.00000374       0.00127395       0.00170132       0.00405818       0.00084387       0.00320074       0.00031124       0.00232212       0.00000155       0.00054943       0.00032343       0.00078478       0.00015833       0.00061968       0.00005764       0.00044848       0.00000027       0.00010343       0.00001808       0.00004553       0.00000863       0.00003608       0.00000307       0.00002605       0.00000577
Si       4.12469000       4.13377000       1.32433000      -1.86523000      -0.80523300       0.77255000       1.45999039       1.21388897       0.99085770       0.73297553       0.44588417       0.20287473       0.02891325       0.00062361       0.00629254       0.01323313       0.00345598       0.01039656       0.00486961       0.01020990       0.00267605       0.00801634       0.00313102       0.00652994       0.00172240       0.00512132       0.00168831       0.00349422       0.00093013       0.00273604       0.00037965       0.00204137       0.00000236       0.00058883       0.00069959       0.00143151       0.00038626       0.00111818       0.00015752       0.00083283       0.00000097       0.00024022       0.00012066       0.00024097       0.00006693       0.00018724       0.00002725       0.00013893       0.00000016       0.00004007       0.00000564       0.00001075       0.00000316       0.00000827       0.00000128       0.00000609       0.00000176
Si       1.29302000       4.05539000       3.98890000      -0.06285700       1.33265000       0.17277300       1.46250763       1.21400412       0.98924027       0.72991681       0.44205890       0.19947108       0.02758555       0.00053621       0.00501356       0.01376141       0.00260598       0.01135382       0.00384309       0.01059524       0.00199463       0.00874678       0.00243017       0.00675129       0.00125803       0.00557915       0.00127952       0.00359323       0.00065991       0.00297362       0.00027494       0.00231589       0.00000208       0.00069296       0.00051192       0.00146019       0.00026257       0.00121085       0.00010926       0.00094412       0.00000083       0.00028244       0.00008203       0.00024153       0.00004159       0.00020109       0.00001726       0.00015715       0.00000013       0.00004699       0.00000334       0.00001041       0.00000166       0.00000873       0.00000068       0.00000685       0.00000205
Si       4.08284000       1.38825000       4.12412000      -0.49955500       0.19168600      -1.49549000       1.41457755       1.16948655       0.94867009       0.69523164       0.41629708       0.18449946       0.02444318       0.00044031       0.00282050       0.01159496       0.00123852       0.01001298       0.00215324       0.00890233       0.00094260       0.00769170       0.00135215       0.00564549       0.00058874       0.00488208       0.00070512       0.00298484       0.00030465       0.00258438       0.00012084       0.00207598       0.00000089       0.00065672       0.00027834       0.00120171       0.00011890       0.00104227       0.00004702       0.00083818       0.00000035       0.00026554       0.00004346       0.00019521       0.00001812       0.00016987       0.00000712       0.00013691       0.00000005       0.00004350       0.00000170       0.00000817       0.00000068       0.00000715       0.00000026       0.00000578       0.00000185
Si       5.40450000      -0.19633900      10.97250000       0.42571400       1.33717000      -0.03602530       1.52975679       1.26940857       1.03484729       0.76506900       0.46602129       0.21301436       0.03063192       0.00064754       0.00899689       0.02484583       0.00452475       0.02037369       0.00695834       0.01935018       0.00348951       0.01588135       0.00446888       0.01257725       0.00222985       0.01033822       0.00240515       0.00688373       0.00119148       0.00567005       0.00048001       0.00433934       0.00000323       0.00117684       0.00099338       0.00291216       0.00048689       0.00240567       0.00019547       0.00184345       0.00000131       0.00049825       0.00016991       0.00052253       0.00008142       0.00043404       0.00003245       0.00033339       0.00000022       0.00008948       0.00000780       0.00002604       0.00000358       0.00002183       0.00000140       0.00001682       0.00000446
Si       8.15848000       2.63210000      10.88880000      -0.47226700      -0.30997100       0.39448800       1.42781486       1.17966741       0.95641467       0.70054344       0.41933209       0.18585440       0.02461618       0.00043960       0.00696440       0.01434816       0.00348305       0.01086681       0.00538476       0.01101894       0.00269720       0.00833138       0.00345656       0.00699094       0.00173595       0.00527032       0.00185915       0.00369877       0.00093711       0.00277672       0.00032070       0.00190709       0.00000091       0.00041732       0.00076727       0.00149082       0.00038872       0.00111227       0.00013287       0.00075921       0.00000037       0.00016542       0.00013109       0.00024286       0.00006707       0.00017884       0.00002287       0.00012046       0.00000006       0.00002601       0.00000601       0.00001024       0.00000312       0.00000735       0.00000106       0.00000482       0.00000102
Si       5.45879000       2.80457000       2.71353000      -0.32256600      -1.79773000      -0.31339000       1.43972724       1.19298352       0.97024599       0.71392350       0.43054424       0.19317566       0.02650307       0.00052026       0.00446406       0.01324145       0.00224059       0.01101799       0.00342526       0.01020576       0.00171659       0.00849709       0.00216989       0.00651633       0.00108452       0.00543096       0.00114565       0.00347952       0.00057035       0.00290421       0.00023481       0.00226676       0.00000177       0.00066604       0.00046041       0.00142182       0.00022784       0.00118926       0.00009376       0.00092952       0.00000071       0.00027329       0.00007457       0.00023853       0.00003642       0.00020038       0.00001497       0.00015705       0.00000011       0.00004623       0.00000311       0.00001064       0.00000148       0.00000901       0.00000061       0.00000710       0.00000209
Si       8.25058000       0.08223370       2.91139000      -1.43162000      -3.16339000      -1.53950000       1.50639031       1.24291479       1.00798639       0.74082830       0.44870118       0.20492617       0.03037912       0.00075850       0.00867197       0.03141050       0.00393845       0.02667699       0.00672618       0.02454228       0.00304448       0.02086058       0.00434174       0.01604474       0.00195353       0.01365652       0.00235413       0.00885678       0.00105008       0.00755273       0.00041181       0.00595948       0.00000351       0.00175340       0.00098328       0.00379585       0.00043294       0.00324551       0.00016960       0.00256508       0.00000146       0.00075448       0.00017237       0.00070086       0.00007379       0.00060228       0.00002882       0.00047748       0.00000025       0.00014036       0.00000831       0.00003700       0.00000337       0.00003206       0.00000130       0.00002554       0.00000750
Si       6.81407000       1.18082000       1.48010000      -0.55523700       1.83943000      -0.71939400       1.40891628       1.15951950       0.93642068       0.68234519       0.40540375       0.17788009       0.02310607       0.00040543       0.00310137       0.01483521       0.00114446       0.01287829       0.00237021       0.01139714       0.00087131       0.00989824       0.00149119       0.00723526       0.00054453       0.00628861       0.00077969       0.00383104       0.00028202       0.00333338       0.00009834       0.00265159       0.00000051       0.00077821       0.00030895       0.00154565       0.00011021       0.00134690       0.00003824       0.00107279       0.00000020       0.00031592       0.00004862       0.00025215       0.00001685       0.00022038       0.00000578       0.00017597       0.00000003       0.00005219       0.00000192       0.00001063       0.00000063       0.00000934       0.00000021       0.00000749       0.00000225
Si       9.34493000       4.28442000       1.18037000       1.90770000      -1.00706000       1.01608000       1.45006224       1.18897125       0.95702065       0.69483303       0.41149388       0.18044809       0.02361701       0.00042156       0.00618234       0.02564018       0.00226814       0.02172598       0.00477096       0.01990072       0.00174269       0.01687245       0.00305252       0.01285873       0.00110652       0.01091273       0.00163430       0.00697925       0.00058604       0.00593099       0.00017327       0.00455459       0.00000031       0.00114900       0.00067005       0.00291719       0.00023651       0.00248365       0.00006939       0.00190958       0.00000012       0.00048124       0.00011296       0.00051074       0.00003860       0.00043637       0.00001114       0.00033628       0.00000002       0.00008458       0.00000506       0.00002435       0.00000163       0.00002092       0.00000045       0.00001618       0.00000406
Si       6.81293000       4.10475000       4.00463000       0.23688500       0.13284600       1.66695000       1.46409054       1.21334113       0.98739265       0.72761691       0.44025265       0.19870778       0.02764336       0.00055379       0.00510865       0.01520912       0.00259582       0.01269629       0.00391820       0.01167577       0.00199030       0.00974786       0.00248012       0.00740213       0.00125910       0.00618112       0.00130763       0.00391130       0.00066333       0.00326700       0.00027690       0.00256402       0.00000217       0.00077814       0.00052421       0.00157281       0.00026561       0.00131422       0.00011082       0.00103169       0.00000087       0.00031324       0.00008433       0.00025454       0.00004263       0.00021284       0.00001777       0.00016717       0.00000014       0.00005080       0.00000346       0.00001054       0.00000174       0.00000882       0.00000072       0.00000693       0.00000211
Si       9.54626000       1.42733000       4.04003000      -0.23466700       1.87762000       0.63865900       1.61576524       1.35816599       1.12290056       0.84745914       0.53362886       0.25673817       0.04190120       0.00115553       0.02150971       0.02595086       0.01311202       0.01755317       0.01687366       0.02018157       0.01029638       0.01360429       0.01110531       0.01308642       0.00678811       0.00876923       0.00618537       0.00714036       0.00378959       0.00474458       0.00160040       0.00311872       0.00001089       0.00087123       0.00268309       0.00300909       0.00164907       0.00197507       0.00069634       0.00128369       0.00000470       0.00035793       0.00050629       0.00053686       0.00031301       0.00034358       0.00013215       0.00021799       0.00000088       0.00006052       0.00002758       0.00002668       0.00001721       0.00001630       0.00000726       0.00000986       0.00000271
Si      10.90140000       5.55753000      -0.15247500      -0.17164000      -2.45179000       0.73890100       1.52926237       1.27283599       1.04105064       0.77336225       0.47480384       0.21988145       0.03289346       0.00078054       0.01133957       0.02270307       0.00616305       0.01752655       0.00880999       0.01762536       0.00478771       0.01360308       0.00570229       0.01139419       0.00309821       0.00879011       0.00310250       0.00618974       0.00168510       0.00477234       0.00066844       0.00347522       0.00000464       0.00093046       0.00130135       0.00259136       0.00070642       0.00199643       0.00027974       0.00145222       0.00000193       0.00038758       0.00022951       0.00045577       0.00012441       0.00035067       0.00004909       0.00025456       0.00000033       0.00006751       0.00001109       0.00002200       0.00000599       0.00001690       0.00000235       0.00001223       0.00000321
Si       2.55021000       8.11151000       0.02727890       2.30643000      -0.00093342      -0.13939800       1.49815485       1.23417909       0.99835932       0.73003251       0.43730219       0.19523385       0.02673860       0.00052400       0.00688300       0.02735518       0.00263939       0.02311157       0.00533203       0.02138392       0.00202805       0.01807994       0.00343529       0.01399190       0.00128806       0.01184466       0.00185861       0.00773335       0.00068271       0.00655745       0.00023346       0.00498381       0.00000125       0.00113947       0.00077470       0.00332073       0.00027606       0.00282210       0.00009290       0.00214571       0.00000050       0.00048660       0.00013572       0.00061567       0.00004538       0.00052532       0.00001472       0.00039965       0.00000008       0.00008921       0.00000661       0.00003275       0.00000196       0.00002810       0.00000059       0.00002139       0.00000465
Si      -0.21588900       8.23091000       2.72362000       2.88623000      -2.02879000       1.60035000       1.54522003       1.28117860       1.04441946       0.77330042       0.47379730       0.22012773       0.03399162       0.00093080       0.01013447       0.02985078       0.00500770       0.02472401       0.00786635       0.02331147       0.00387656       0.01932168       0.00508382       0.01522488       0.00249356       0.01263463       0.00276071       0.00839079       0.00134499       0.00697507       0.00056276       0.00535357       0.00000563       0.00139538       0.00115528       0.00358656       0.00055726       0.00298854       0.00023256       0.00229641       0.00000233       0.00059730       0.00020307       0.00065788       0.00009591       0.00055072       0.00003980       0.00042411       0.00000040       0.00010990       0.00000980       0.00003421       0.00000444       0.00002886       0.00000182       0.00002231       0.00000575
Si       2.64160000       5.51165000       2.66817000       0.87763900      -1.00594000       0.10098500       1.43267622       1.18634103       0.96405299       0.70837158       0.42597807       0.19000116       0.02552014       0.00046873       0.00423283       0.01251835       0.00208356       0.01036907       0.00324506       0.00960946       0.00159648       0.00796089       0.00205251       0.00609197       0.00100882       0.00504828       0.00108110       0.00321952       0.00053063       0.00266904       0.00020400       0.00207394       0.00000106       0.00063071       0.00043282       0.00129546       0.00021199       0.00107463       0.00008141       0.00083533       0.00000042       0.00025397       0.00006947       0.00021025       0.00003387       0.00017465       0.00001298       0.00013586       0.00000007       0.00004128       0.00000284       0.00000879       0.00000137       0.00000732       0.00000052       0.00000571       0.00000173
Si       1.21773000       6.78710000       1.36542000      -0.43645100       1.19262000       0.60941100       1.49825527       1.24775235       1.02059345       0.75751548       0.46354133       0.21285165       0.03086025       0.00066610       0.00994560       0.01789534       0.00558418       0.01353393       0.00774099       0.01386235       0.00434911       0.01047047       0.00502635       0.00892738       0.00282700       0.00672803       0.00274728       0.00482360       0.00154748       0.00362379       0.00060826       0.00262806       0.00000311       0.00081102       0.00116019       0.00200373       0.00065488       0.00149842       0.00025690       0.00108258       0.00000129       0.00033434       0.00020756       0.00034684       0.00011764       0.00025691       0.00004597       0.00018415       0.00000022       0.00005695       0.00001031       0.00001626       0.00000588       0.00001184       0.00000229       0.00000836       0.00000259
Si       3.96889000       9.48350000       1.42913000      -0.23480900      -1.13972000      -0.67085400       1.51575160       1.26023537       1.02952998       0.76335970       0.46689867       0.21450238       0.03115625       0.00067351       0.01092268       0.02122986       0.00590781       0.01621499       0.00850460       0.01640280       0.00460525       0.01250344       0.00552603       0.01051655       0.00299824       0.00798876       0.00302374       0.00564729       0.00164502       0.00426857       0.00062155       0.00306885       0.00000303       0.00088623       0.00127931       0.00232561       0.00069861       0.00174492       0.00026316       0.00124608       0.00000125       0.00035899       0.00022994       0.00039587       0.00012648       0.00029240       0.00004736       0.00020577       0.00000022       0.00005897       0.00001155       0.00001808       0.00000643       0.00001295       0.00000238       0.00000885       0.00000251
Si       1.28620000       9.56070000       4.07143000      -0.42557100       0.71337600      -0.08592310       1.37264754       1.12726666       0.90787592       0.65842921       0.38766807       0.16730014       0.02068964       0.00031958       0.00176539       0.01290725       0.00046370       0.01160556       0.00135042       0.00992766       0.00035184       0.00892908       0.00085105       0.00631532       0.00021863       0.00568290       0.00044618       0.00335368       0.00011236       0.00301987       0.00003664       0.00249460       0.00000024       0.00082835       0.00017758       0.00135880       0.00004345       0.00122467       0.00001396       0.00101239       0.00000009       0.00033682       0.00002825       0.00022359       0.00000652       0.00020187       0.00000203       0.00016710       0.00000001       0.00005580       0.00000115       0.00000957       0.00000024       0.00000867       0.00000007       0.00000719       0.00000241
Si       4.16746000       6.77009000       3.98760000      -1.52980000       1.12373000       0.12677100       1.45969397       1.20461621       0.97613129       0.71523593       0.42924416       0.19159154       0.02599235       0.00049466       0.00458791       0.01830431       0.00194775       0.01566415       0.00351529       0.01409683       0.00148766       0.01206921       0.00222135       0.00898657       0.00093490       0.00770012       0.00116857       0.00478566       0.00048797       0.00410506       0.00018775       0.00323139       0.00000135       0.00090109       0.00046704       0.00194612       0.00019281       0.00167188       0.00007393       0.00131717       0.00000053       0.00036714       0.00007473       0.00032220       0.00003013       0.00027760       0.00001147       0.00021905       0.00000008       0.00006101       0.00000304       0.00001389       0.00000117       0.00001202       0.00000044       0.00000951       0.00000265
Si       5.53249000       5.34289000       0.08094310       0.29759300       0.83694100      -2.48990000       1.45878403       1.21257488       0.98964177       0.73210081       0.44563723       0.20322467       0.02927395       0.00065268       0.00702816       0.01433600       0.00388207       0.01118991       0.00543386       0.01107450       0.00300216       0.00864279       0.00348748       0.00709803       0.00192753       0.00553808       0.00187488       0.00380960       0.00103673       0.00297145       0.00042637       0.00220545       0.00000294       0.00061867       0.00077286       0.00156746       0.00042759       0.00122219       0.00017602       0.00090677       0.00000122       0.00025379       0.00013152       0.00026620       0.00007281       0.00020750       0.00003003       0.00015386       0.00000021       0.00004287       0.00000596       0.00001208       0.00000330       0.00000942       0.00000136       0.00000698       0.00000193
Si       8.12186000       8.17121000      10.89250000       1.10983000      -1.53615000      -0.56450100       1.50143128       1.24031002       1.00673407       0.74015227       0.44745269       0.20260809       0.02868519       0.00060141       0.00703940       0.02621329       0.00329492       0.02246880       0.00544240       0.02036977       0.00254101       0.01746838       0.00349326       0.01318953       0.00162380       0.01132008       0.00187870       0.00718067       0.00086781       0.00616978       0.00035801       0.00494018       0.00000284       0.00155470       0.00077524       0.00301506       0.00035481       0.00259463       0.00014600       0.00207916       0.00000116       0.00065404       0.00013240       0.00053301       0.00005944       0.00046006       0.00002433       0.00036920       0.00000019       0.00011603       0.00000606       0.00002589       0.00000263       0.00002246       0.00000106       0.00001806       0.00000567
Si       5.50517000       8.22124000       2.66762000      -1.23109000      -0.36791100       0.75972400       1.52000078       1.26335132       1.03140996       0.76376338       0.46595135       0.21311743       0.03055602       0.00063595       0.00939531       0.02174149       0.00492830       0.01727448       0.00726735       0.01688460       0.00380636       0.01342360       0.00466813       0.01092243       0.00243847       0.00869278       0.00251278       0.00593967       0.00130750       0.00473439       0.00051169       0.00353992       0.00000290       0.00097021       0.00103792       0.00249102       0.00053692       0.00199002       0.00020956       0.00148925       0.00000117       0.00040611       0.00017747       0.00044003       0.00009064       0.00035320       0.00003518       0.00026483       0.00000019       0.00007149       0.00000813       0.00002146       0.00000404       0.00001738       0.00000155       0.00001308       0.00000347
Si       8.18650000       5.53225000       2.78107000      -1.22925000      -0.04413780      -1.03091000       1.51201161       1.25590032       1.02481920       0.75851914       0.46252409       0.21141340       0.03026690       0.00063039       0.00886419       0.02028206       0.00464941       0.01606728       0.00684482       0.01565069       0.00358986       0.01239572       0.00438357       0.01001141       0.00229858       0.00792642       0.00234950       0.00535762       0.00123161       0.00423973       0.00047650       0.00315913       0.00000276       0.00089330       0.00096433       0.00219449       0.00050525       0.00173541       0.00019506       0.00129202       0.00000112       0.00036480       0.00016269       0.00036891       0.00008514       0.00029136       0.00003273       0.00021656       0.00000018       0.00006096       0.00000726       0.00001638       0.00000379       0.00001291       0.00000144       0.00000957       0.00000268
Si       6.75104000       6.81651000       1.35396000       1.32017000      -0.13083600       0.55280900       1.53867898       1.27630410       1.04043732       0.76956520       0.46944125       0.21515668       0.03111688       0.00066263       0.00907045       0.02419522       0.00467995       0.01980473       0.00699637       0.01870637       0.00360664       0.01531663       0.00447205       0.01200547       0.00230179       0.00983521       0.00239040       0.00645376       0.00122765       0.00529100       0.00050598       0.00406181       0.00000372       0.00114640       0.00097723       0.00265999       0.00050027       0.00218304       0.00020593       0.00167674       0.00000151       0.00047289       0.00016350       0.00045241       0.00008315       0.00037206       0.00003414       0.00028606       0.00000025       0.00008056       0.00000718       0.00002045       0.00000361       0.00001688       0.00000147       0.00001300       0.00000365
Si       9.52788000       9.45856000       1.37394000      -2.04569000       2.11279000      -0.24219800       1.56488489       1.30236019       1.06594349       0.79373299       0.49057261       0.23077443       0.03654187       0.00102463       0.01643393       0.03102555       0.00913103       0.02372265       0.01288675       0.02422211       0.00716581       0.01850116       0.00847551       0.01581238       0.00471912       0.01205600       0.00471602       0.00870946       0.00263051       0.00662396       0.00106617       0.00478936       0.00000649       0.00127831       0.00204277       0.00372010       0.00114215       0.00281948       0.00046296       0.00203205       0.00000281       0.00053892       0.00038428       0.00068171       0.00021579       0.00051322       0.00008748       0.00036758       0.00000053       0.00009625       0.00002081       0.00003545       0.00001176       0.00002641       0.00000477       0.00001872       0.00000480