64
Lattice="10.862 0.0 0.0 0.0 10.862 0.0 0.0 0.0 10.862" Properties=species:S:1:pos:R:3:atomic_forces_forces:R:3:quests_descriptor_descriptors:R:63 energy_energy=-263.41265 energy_per_atom=F quests_descriptor_num_nearest_neighbors=32 quests_descriptor_cutoff=5.0 quests_descriptor_species="_JSON [\"species-agnostic\"]" pbc="T T T"
Si      10.87020000      -0.10323000      10.87150000      -0.88655100       0.66580900       0.66663200       0.28540180       0.26739262       0.26375187       0.25811781       0.05929336       0.05422156       0.05229429       0.05026975       0.04830544       0.04673787       0.04118164       0.03962993       0.03921973       0.03878010       0.03619074       0.03149940       0.01195999       0.00988484       0.00967567       0.00904801       0.00835117       0.00795398       0.00732068       0.00709026       0.00655748       0.00635862       0.00458144       0.00263933       0.00000000       0.00000000       0.00000000       0.00000000       0.08676542       0.06199435       0.05960086       0.05045185       0.04522515       0.04156071       0.03352705       0.03109626       0.02858682       0.02589117       0.02460349       0.02341036       0.02161271       0.02057432       0.01918201       0.01815350       0.01658263       0.01505691       0.01370205       0.01234136       0.01095253       0.01015026       0.00946064       0.00862219       0.00818148       0.00738937       0.00608851       0.00000000       0.00000000       0.00000000       0.00000000
Si       2.65429000       2.76148000       0.12119900      -0.18204800      -0.14381100      -1.66213000       0.26581413       0.25506695       0.24031574       0.23050690       0.05667759       0.05592856       0.04670816       0.04477111       0.04232496       0.04218195       0.04082547       0.03921973       0.03869212       0.03849986       0.03644727       0.02624228       0.01430773       0.01277563       0.01224720       0.01208881       0.00949425       0.00892578       0.00655285       0.00645461       0.00526278       0.00514831       0.00319594       0.00245718       0.00000000       0.00000000       0.00000000       0.00000000       0.08349792       0.05870582       0.05620543       0.04820903       0.04380144       0.03945424       0.03160458       0.03029943       0.02799432       0.02531681       0.02369404       0.02203380       0.02046582       0.01974991       0.01876147       0.01783490       0.01683192       0.01552247       0.01350825       0.01244908       0.01119713       0.01027485       0.00946224       0.00836846       0.00768822       0.00691976       0.00545901       0.00000000       0.00000000       0.00000000       0.00000000
Si       0.04534280       2.54229000       2.71367000      -0.31239300       1.28413000      -0.34221500       0.26337700       0.26070478       0.23360760       0.22948980       0.05991944       0.05748619       0.05667759       0.05581872       0.05146113       0.04977248       0.04830544       0.03933532       0.03556248       0.03384278       0.02994263       0.02911249       0.01433417       0.01379079       0.01058426       0.00998766       0.00905988       0.00865898       0.00851357       0.00820901       0.00453588       0.00401820       0.00384831       0.00182598       0.00000000       0.00000000       0.00000000       0.00000000       0.08528415       0.05993994       0.05762019       0.04899487       0.04516115       0.04168674       0.03404478       0.03119287       0.02862809       0.02617032       0.02488408       0.02305026       0.02203656       0.02051073       0.01919437       0.01792950       0.01669319       0.01565503       0.01386800       0.01220404       0.01122894       0.01048261       0.00958786       0.00873442       0.00738539       0.00656200       0.00528242       0.00000000       0.00000000       0.00000000       0.00000000
Si       2.75605000      10.79160000       2.77087000       0.49802300       1.29216000      -0.38615600       0.27877376       0.27150917       0.25847799       0.25058348       0.06016880       0.05751457       0.05148767       0.04977248       0.04465299       0.04304894       0.04136920       0.04082547       0.03962993       0.03919528       0.03590452       0.03543243       0.01355054       0.01250095       0.01070863       0.01050957       0.01047874       0.00984854       0.00774492       0.00719051       0.00556243       0.00495021       0.00454552       0.00276826       0.00000000       0.00000000       0.00000000       0.00000000       0.08740315       0.06210815       0.05956085       0.05120999       0.04556309       0.04163413       0.03361657       0.03137815       0.02942657       0.02673715       0.02467085       0.02334934       0.02198433       0.02068575       0.01971296       0.01853001       0.01751537       0.01597624       0.01422168       0.01294463       0.01145866       0.01064592       0.00997685       0.00907006       0.00838925       0.00737195       0.00602583       0.00000000       0.00000000       0.00000000       0.00000000
Si       1.37964000       1.19201000       1.34585000       0.32651700       0.56935500       0.57201200       0.26739262       0.26070478       0.25847799       0.25506695       0.05602639       0.05460000       0.05398620       0.04826743       0.04813872       0.04587209       0.04518959       0.04212983       0.04006023       0.03230133       0.03114790       0.03036243       0.01644796       0.01415531       0.01345506       0.01277083       0.00975982       0.00837690       0.00627162       0.00513443       0.00411199       0.00316892       0.00260156       0.00166718       0.00000000       0.00000000       0.00000000       0.00000000       0.08525784       0.06050564       0.05859505       0.04990178       0.04474432       0.04057449       0.03261889       0.03062100       0.02894990       0.02663766       0.02409600       0.02230803       0.02137313       0.02061842       0.01947346       0.01813702       0.01708116       0.01562455       0.01373377       0.01208822       0.01095395       0.01007256       0.00898188       0.00798252       0.00690976       0.00569849       0.00480158       0.00000000       0.00000000       0.00000000       0.00000000
Si       4.21562000       4.01445000       1.29038000      -1.57418000       0.52151400       1.83923000       0.28064718       0.26581413       0.26385934       0.23256356       0.05721158       0.05335252       0.05314437       0.04879740       0.04852070       0.04832872       0.03945230       0.03884939       0.03861942       0.03244036       0.03230133       0.02706865       0.01747348       0.01377328       0.01283429       0.01166811       0.00873975       0.00679030       0.00556243       0.00542458       0.00413041       0.00401820       0.00310669       0.00214554       0.00000000       0.00000000       0.00000000       0.00000000       0.08466384       0.06013746       0.05778173       0.04943650       0.04444343       0.03993844       0.03205071       0.03019514       0.02832632       0.02607777       0.02334175       0.02198525       0.02095536       0.02021287       0.01917933       0.01763922       0.01655045       0.01521111       0.01349707       0.01207105       0.01066423       0.00961914       0.00914773       0.00776013       0.00704080       0.00631568       0.00515800       0.00000000       0.00000000       0.00000000       0.00000000
Si       1.31004000       4.07703000       4.16101000       1.12994000      -1.50576000      -0.43038900       0.26788497       0.25036976       0.23360760       0.22619640       0.06198928       0.05086196       0.04932857       0.04500367       0.04433152       0.04303115       0.04095394       0.03761477       0.03721025       0.03488348       0.03036243       0.02706865       0.02394388       0.01554215       0.01507977       0.01102461       0.01047411       0.00949425       0.00818555       0.00648560       0.00584740       0.00497249       0.00495021       0.00488598       0.00000000       0.00000000       0.00000000       0.00000000       0.08408344       0.05979334       0.05704579       0.04906035       0.04471694       0.04020789       0.03295089       0.03026493       0.02827668       0.02597934       0.02414051       0.02269809       0.02152523       0.02046196       0.01949348       0.01871786       0.01749015       0.01621711       0.01514465       0.01335400       0.01227271       0.01131693       0.01035822       0.00947314       0.00869132       0.00759336       0.00656335       0.00000000       0.00000000       0.00000000       0.00000000
Si       4.02837000       1.46524000       4.07590000       0.20386000      -0.99345400      -0.12441300       0.27250927       0.26313524       0.26134720       0.25058348       0.05188179       0.05127482       0.04932857       0.04852070       0.04714025       0.04671260       0.04587209       0.04466725       0.04074264       0.03983793       0.03662791       0.02983807       0.01573113       0.01379079       0.01224720       0.01069263       0.01006215       0.00945398       0.00912021       0.00467528       0.00412671       0.00367322       0.00287262       0.00201967       0.00000000       0.00000000       0.00000000       0.00000000       0.08646489       0.06099614       0.05861389       0.05001555       0.04470270       0.04141522       0.03273583       0.03094351       0.02916102       0.02707986       0.02446976       0.02274035       0.02129893       0.02064595       0.01969061       0.01840235       0.01739634       0.01592143       0.01410423       0.01238002       0.01137878       0.01035127       0.00904396       0.00807620       0.00723420       0.00626392       0.00537451       0.00000000       0.00000000       0.00000000       0.00000000
Si       5.42942000       0.09102000      10.73210000      -0.09417730       0.75256500       1.56521000       0.27175382       0.26022442       0.25111921       0.23220080       0.06047502       0.05878483       0.05474429       0.04711369       0.04362673       0.04232496       0.03983551       0.03904644       0.03590452       0.03565853       0.03270328       0.03135014       0.01403293       0.01377328       0.01125426       0.01073893       0.00975982       0.00764825       0.00742093       0.00678437       0.00652077       0.00412671       0.00237307       0.00190486       0.00000000       0.00000000       0.00000000       0.00000000       0.08436338       0.06009751       0.05712096       0.04868968       0.04410462       0.04001919       0.03275525       0.03055297       0.02815648       0.02545887       0.02364888       0.02273640       0.02101879       0.01987573       0.01874268       0.01802714       0.01683152       0.01512167       0.01342400       0.01251459       0.01110169       0.01024872       0.00925395       0.00856611       0.00725533       0.00609629       0.00514366       0.00000000       0.00000000       0.00000000       0.00000000
Si       8.03093000       2.73118000      10.74770000      -0.71712800      -0.01946530       0.49944000       0.26080331       0.25553722       0.22852047       0.22805415       0.05537703       0.05474429       0.05334339       0.04902397       0.04670800       0.03946848       0.03914173       0.03880464       0.03694209       0.03299832       0.03149940       0.02994263       0.01747348       0.01414652       0.01176077       0.01141116       0.01043064       0.00948326       0.00896505       0.00827774       0.00741471       0.00559468       0.00377629       0.00260156       0.00000000       0.00000000       0.00000000       0.00000000       0.08405019       0.05941358       0.05606273       0.04825514       0.04392460       0.04033312       0.03238895       0.03039144       0.02804929       0.02633224       0.02428209       0.02240988       0.02135877       0.02010099       0.01902292       0.01812675       0.01696049       0.01608773       0.01484997       0.01324306       0.01190042       0.01106050       0.01014726       0.00923310       0.00825708       0.00733504       0.00618341       0.00000000       0.00000000       0.00000000       0.00000000
Si       5.47128000       2.80456000       2.83053000      -1.10349000      -1.51459000      -1.58371000       0.30136792       0.26385934       0.26313524       0.26183730       0.05282603       0.04959512       0.04937407       0.04767198       0.04495159       0.04296032       0.04160654       0.03914173       0.03869212       0.03796006       0.03543243       0.03135014       0.01422499       0.01251160       0.01103104       0.00903069       0.00857015       0.00832734       0.00661305       0.00648560       0.00456169       0.00411199       0.00332321       0.00226460       0.00000000       0.00000000       0.00000000       0.00000000       0.08552387       0.06157198       0.05855669       0.04916837       0.04419659       0.03984569       0.03174798       0.03017863       0.02836482       0.02533246       0.02353762       0.02253155       0.02065873       0.01977093       0.01888081       0.01791347       0.01663629       0.01486302       0.01334813       0.01207449       0.01075158       0.00967834       0.00914931       0.00819116       0.00725340       0.00646485       0.00550058       0.00000000       0.00000000       0.00000000       0.00000000
Si       8.24912000       0.04335200       2.70033000      -2.83275000      -2.02183000      -0.30126300       0.30966649       0.27564010       0.26585327       0.23404470       0.05991944       0.05926643       0.05708787       0.05109131       0.05026975       0.04600899       0.04497207       0.03946848       0.03796006       0.03638538       0.03504981       0.03270328       0.01330422       0.01277083       0.01201168       0.01185528       0.01061223       0.00986540       0.00851306       0.00820579       0.00551484       0.00478419       0.00367322       0.00338737       0.00000000       0.00000000       0.00000000       0.00000000       0.08884251       0.06355005       0.06028313       0.05176335       0.04678944       0.04276868       0.03444147       0.03217482       0.02969825       0.02789265       0.02513491       0.02377272       0.02246144       0.02107166       0.01975783       0.01875526       0.01800319       0.01688295       0.01465918       0.01284400       0.01170047       0.01103870       0.01048871       0.00945772       0.00830712       0.00749681       0.00607527       0.00000000       0.00000000       0.00000000       0.00000000
Si       6.75400000       1.36181000       1.51703000       0.22159500       0.54085200      -2.16486000       0.26585327       0.26183730       0.23220080       0.22852047       0.05972425       0.05721158       0.05439702       0.05188179       0.05183608       0.04968223       0.04811553       0.04672421       0.03453996       0.03416575       0.03207457       0.02167018       0.01487469       0.01459463       0.01149834       0.01095902       0.01050957       0.00976023       0.00865898       0.00645642       0.00645461       0.00458144       0.00413979       0.00139312       0.00000000       0.00000000       0.00000000       0.00000000       0.08566916       0.06004745       0.05811710       0.05003074       0.04514056       0.04117303       0.03332179       0.03121043       0.02938035       0.02697783       0.02465029       0.02296756       0.02187979       0.02093286       0.01942082       0.01827021       0.01691061       0.01551616       0.01404703       0.01278552       0.01176256       0.01062156       0.00985962       0.00887232       0.00789573       0.00695008       0.00492311       0.00000000       0.00000000       0.00000000       0.00000000
Si       9.50149000       3.95075000       1.23577000       0.82803100       0.00350040       1.61600000       0.26080331       0.25679150       0.25257242       0.22948980       0.06680182       0.06480357       0.04811553       0.04741608       0.04418924       0.04006023       0.03729814       0.03497158       0.03488348       0.03247440       0.03191957       0.02761241       0.01430773       0.01330422       0.01232764       0.01211867       0.00967567       0.00857015       0.00768885       0.00767325       0.00514949       0.00321568       0.00208397       0.00114489       0.00000000       0.00000000       0.00000000       0.00000000       0.08297193       0.05922226       0.05617939       0.04795847       0.04374353       0.03841814       0.03216499       0.02988912       0.02747576       0.02559308       0.02330129       0.02204180       0.02039438       0.01917504       0.01835342       0.01728827       0.01628873       0.01536083       0.01357800       0.01205430       0.01105423       0.01023783       0.00926349       0.00787723       0.00693213       0.00592398       0.00401146       0.00000000       0.00000000       0.00000000       0.00000000
Si       6.75336000       4.03738000       4.08794000       1.60796000       0.95839400       2.66533000       0.30136792       0.26104264       0.22929391       0.22228773       0.05439702       0.05250165       0.05127482       0.04879740       0.04876648       0.04217803       0.03989954       0.03848748       0.03528818       0.03497158       0.03436306       0.03173672       0.01076533       0.01021134       0.00851306       0.00833462       0.00819780       0.00810571       0.00803161       0.00766191       0.00675210       0.00559468       0.00453588       0.00433577       0.00000000       0.00000000       0.00000000       0.00000000       0.08432398       0.05993640       0.05520798       0.04817329       0.04346447       0.04036868       0.03179877       0.02983030       0.02733157       0.02543762       0.02359285       0.02225725       0.02101846       0.01967513       0.01839464       0.01722319       0.01622660       0.01456011       0.01353958       0.01200922       0.01069337       0.01004941       0.00940399       0.00861800       0.00791849       0.00741720       0.00681713       0.00000000       0.00000000       0.00000000       0.00000000
Si       9.54472000       1.15957000       3.99949000       2.11114000       1.30128000       1.04700000       0.30966649       0.27181319       0.26337700       0.26086244       0.06398203       0.05417867       0.05395209       0.05183608       0.04826743       0.04646982       0.04117706       0.03928519       0.03729814       0.03721025       0.03413308       0.03173672       0.02068448       0.01479132       0.01456966       0.01336021       0.01195999       0.01047874       0.00661305       0.00594519       0.00472182       0.00385549       0.00377629       0.00151100       0.00000000       0.00000000       0.00000000       0.00000000       0.08875233       0.06424496       0.06097321       0.05194378       0.04615796       0.04232565       0.03431513       0.03224923       0.02995430       0.02727378       0.02526007       0.02379880       0.02249468       0.02129713       0.02013847       0.01933625       0.01849601       0.01675917       0.01490606       0.01327047       0.01220469       0.01105638       0.01012116       0.00888017       0.00741051       0.00644411       0.00493300       0.00000000       0.00000000       0.00000000       0.00000000
Si      10.80890000       5.58420000       0.15166200      -0.60332700      -0.45660600      -0.74223300       0.27036289       0.26596619       0.25679150       0.25294843       0.05799469       0.05658066       0.04785286       0.04499293       0.04460776       0.04090370       0.03849986       0.03709729       0.03584929       0.03384278       0.03299832       0.02748891       0.01734684       0.01461650       0.01440814       0.01436106       0.01348980       0.00818555       0.00542832       0.00424118       0.00367094       0.00310669       0.00271123       0.00166718       0.00000000       0.00000000       0.00000000       0.00000000       0.08441438       0.06013212       0.05704506       0.04848006       0.04350503       0.03911165       0.03188321       0.02972610       0.02788627       0.02565314       0.02337322       0.02182639       0.02044651       0.01990280       0.01893290       0.01795174       0.01685183       0.01556403       0.01389684       0.01260316       0.01126700       0.00982281       0.00877475       0.00770943       0.00676316       0.00549803       0.00472116       0.00000000       0.00000000       0.00000000       0.00000000
Si       2.70755000       8.17841000       0.08917260       0.90001200       1.24654000       0.05410940       0.27157679       0.26608494       0.25822279       0.23379620       0.05229429       0.05148767       0.05142860       0.04822419       0.04785286       0.04353892       0.04336945       0.04056862       0.03983551       0.03906890       0.03629417       0.03623405       0.01729850       0.01644796       0.01256411       0.01255240       0.01048088       0.00554252       0.00546908       0.00542458       0.00531850       0.00485373       0.00482097       0.00452305       0.00000000       0.00000000       0.00000000       0.00000000       0.08614948       0.06145323       0.05820836       0.05067566       0.04476129       0.04136823       0.03283131       0.03158758       0.02956747       0.02647884       0.02450948       0.02304179       0.02179609       0.02089836       0.01992862       0.01923022       0.01814902       0.01620181       0.01406581       0.01241549       0.01158227       0.01094790       0.00997819       0.00876698       0.00764194       0.00706005       0.00641724       0.00000000       0.00000000       0.00000000       0.00000000
Si      -0.10318000       8.21411000       2.71054000       1.45285000      -0.56190800      -1.23777000       0.27610297       0.25511031       0.24974210       0.22743540       0.06887756       0.06317440       0.05799469       0.05708787       0.05422156       0.04515977       0.04353892       0.04304894       0.03943732       0.03733733       0.03492657       0.02975832       0.02068448       0.01482605       0.01415531       0.01307458       0.01102866       0.00949370       0.00777219       0.00673368       0.00497249       0.00321568       0.00281395       0.00192896       0.00000000       0.00000000       0.00000000       0.00000000       0.08905892       0.06246091       0.05963135       0.05196104       0.04769973       0.04224036       0.03552765       0.03287367       0.03093103       0.02783270       0.02573567       0.02448928       0.02319926       0.02165758       0.02079428       0.01907439       0.01784553       0.01664243       0.01533181       0.01345060       0.01232992       0.01089377       0.00953147       0.00859977       0.00783157       0.00664177       0.00489749       0.00000000       0.00000000       0.00000000       0.00000000
Si       2.74945000       5.35206000       2.75142000       0.16382500      -0.71547600      -0.60798300       0.27100954       0.26272180       0.25036976       0.23256356       0.05592856       0.05514502       0.05398522       0.05282603       0.04608905       0.04460776       0.04351144       0.04091741       0.04056862       0.03933532       0.03727761       0.02975832       0.01573113       0.01213442       0.01187608       0.01186343       0.01076533       0.00646633       0.00565032       0.00514949       0.00513443       0.00442012       0.00277581       0.00183158       0.00000000       0.00000000       0.00000000       0.00000000       0.08550532       0.06033663       0.05745322       0.04955280       0.04538035       0.04055736       0.03287549       0.03123060       0.02901441       0.02614491       0.02441025       0.02291046       0.02142296       0.02051085       0.01940244       0.01853276       0.01745805       0.01500677       0.01325160       0.01208927       0.01088949       0.00987060       0.00926321       0.00796557       0.00713788       0.00624334       0.00490780       0.00000000       0.00000000       0.00000000       0.00000000
Si       1.47140000       6.77984000       1.42370000      -1.55724000       0.67534000       0.91939400       0.27157679       0.26596619       0.26272180       0.22743540       0.06126308       0.05933495       0.05919347       0.04562840       0.04478677       0.04303115       0.04121318       0.03945230       0.03668402       0.03191957       0.03079033       0.02958489       0.01398741       0.01222632       0.01208881       0.01190053       0.01171226       0.01070863       0.00904801       0.00830258       0.00811237       0.00540801       0.00384831       0.00051054       0.00000000       0.00000000       0.00000000       0.00000000       0.08553420       0.06120606       0.05846118       0.05034908       0.04524910       0.03962717       0.03257159       0.03091734       0.02884507       0.02676342       0.02434885       0.02302838       0.02149668       0.02049596       0.01895310       0.01794584       0.01722052       0.01642414       0.01454455       0.01336946       0.01182302       0.01100764       0.01024075       0.00938328       0.00850841       0.00701298       0.00307462       0.00000000       0.00000000       0.00000000       0.00000000
Si       4.19122000       9.62619000       1.41131000      -0.60323100      -1.10562000      -1.53481000       0.27150917       0.26417371       0.25111921       0.23379620       0.05972425       0.05398620       0.05140157       0.04714025       0.04634818       0.04625781       0.04188741       0.03925592       0.03874946       0.03668402       0.03528569       0.03357673       0.01720773       0.01455989       0.00986540       0.00903069       0.00892578       0.00635862       0.00614424       0.00605717       0.00574023       0.00421923       0.00281395       0.00277581       0.00000000       0.00000000       0.00000000       0.00000000       0.08452238       0.06007022       0.05759860       0.04914758       0.04441173       0.04092503       0.03284175       0.03105742       0.02803628       0.02558908       0.02408748       0.02268355       0.02142728       0.02023549       0.01927978       0.01810979       0.01680886       0.01507882       0.01345387       0.01216569       0.01076329       0.00986826       0.00875959       0.00809716       0.00742332       0.00649999       0.00578050       0.00000000       0.00000000       0.00000000       0.00000000
Si       1.50346000       9.36500000       4.00708000      -0.90692800      -0.68456900       0.28921600       0.27877376       0.27219095       0.26027399       0.25511031       0.06554746       0.05933495       0.05902372       0.05140157       0.04813872       0.04779435       0.04117706       0.03983793       0.03948129       0.03438693       0.03134922       0.02790219       0.01729850       0.01344060       0.01213442       0.01175872       0.01161317       0.01034145       0.00851357       0.00835117       0.00787449       0.00551484       0.00525008       0.00298912       0.00000000       0.00000000       0.00000000       0.00000000       0.08929739       0.06373627       0.06095205       0.05192633       0.04785146       0.04112424       0.03478124       0.03242084       0.03028597       0.02770870       0.02575741       0.02349753       0.02239378       0.02133899       0.02056144       0.01916529       0.01752384       0.01652936       0.01550967       0.01406567       0.01264191       0.01136797       0.01061880       0.00981011       0.00904167       0.00822965       0.00660092       0.00000000       0.00000000       0.00000000       0.00000000
Si       4.00257000       6.79022000       4.03090000       1.76172000      -0.31602300      -1.35439000       0.29646199       0.27342204       0.27100954       0.23897995       0.06554746       0.06126308       0.05140254       0.04718598       0.04500367       0.04188741       0.03989954       0.03928919       0.03884939       0.03870442       0.03597695       0.02609237       0.01255240       0.01250095       0.01147480       0.01103104       0.00988465       0.00713061       0.00674544       0.00673368       0.00488190       0.00487036       0.00454320       0.00131364       0.00000000       0.00000000       0.00000000       0.00000000       0.08646580       0.06242042       0.05896999       0.05007215       0.04528236       0.03953169       0.03318649       0.03114126       0.02869324       0.02582517       0.02422965       0.02301064       0.02120968       0.01996179       0.01917554       0.01803667       0.01667924       0.01489668       0.01362885       0.01219104       0.01118163       0.01021506       0.00921640       0.00863528       0.00767013       0.00686979       0.00462352       0.00000000       0.00000000       0.00000000       0.00000000
Si       5.42106000       5.45370000       0.03575400       0.24645200       1.40867000      -1.37893000       0.28064718       0.26040342       0.25687794       0.23030271       0.05587724       0.05494434       0.04902397       0.04608905       0.04491974       0.04336945       0.04296032       0.04262268       0.04218195       0.03704866       0.03670716       0.02367490       0.01190053       0.01040641       0.00988465       0.00883445       0.00819780       0.00770714       0.00767325       0.00718120       0.00645642       0.00614424       0.00587458       0.00224616       0.00000000       0.00000000       0.00000000       0.00000000       0.08465109       0.06024958       0.05706761       0.04924224       0.04406676       0.03982834       0.03253963       0.03004337       0.02779565       0.02556983       0.02420419       0.02238139       0.02107133       0.01999765       0.01881030       0.01757121       0.01601924       0.01479969       0.01363110       0.01210272       0.01123057       0.00989704       0.00936690       0.00874111       0.00816255       0.00737951       0.00577590       0.00000000       0.00000000       0.00000000       0.00000000