ITEM: TIMESTEP
0
ITEM: NUMBER OF ATOMS
64
ITEM: BOX BOUNDS pp pp pp
0.0000000000000000e+00 1.0862000000000000e+01
0.0000000000000000e+00 1.0862000000000000e+01
0.0000000000000000e+00 1.0862000000000000e+01
ITEM: ATOMS id type x y z
4 1 2.65653 0.0655 2.62646
5 1 1.33535 1.34158 1.2788
11 1 5.45879 2.80457 2.71353
13 1 6.81407 1.18082 1.4801
3 1 10.764 2.79426 2.61849
10 1 8.15848 2.6321 0.0268
12 1 8.25058 0.0822337 2.91139
20 1 2.6416 5.51165 2.66817
21 1 1.21773 6.7871 1.36542
6 1 4.12469 4.13377 1.32433
25 1 5.53249 5.34289 0.0809431
29 1 6.75104 6.81651 1.35396
14 1 9.34493 4.28442 1.18037
28 1 8.1865 5.53225 2.78107
1 1 0.2149 10.6257 0.1132
18 1 2.55021 8.11151 0.0272789
9 1 5.4045 10.6657 0.1105
22 1 3.96889 9.4835 1.42913
27 1 5.50517 8.22124 2.66762
19 1 10.6461 8.23091 2.72362
26 1 8.12186 8.17121 0.0305
30 1 9.52788 9.45856 1.37394
34 1 2.6322 2.75621 5.35627
37 1 1.3981 1.51082 6.80255
8 1 4.08284 1.38825 4.12412
45 1 6.90855 1.19762 6.83369
16 1 9.54626 1.42733 4.04003
33 1 10.7687 0.2127 5.44239
42 1 8.15585 2.68126 5.44615
7 1 1.29302 4.05539 3.9889
49 1 0.0098 5.4921 5.44011
53 1 1.4324 6.93422 6.72313
15 1 6.81293 4.10475 4.00463
24 1 4.16746 6.77009 3.9876
38 1 4.08333 3.99564 6.7941
57 1 5.36622 5.42916 5.40708
61 1 6.75226 6.82432 6.75195
32 1 9.41953 6.8595 4.17444
46 1 9.54256 4.07632 6.6552
23 1 1.2862 9.5607 4.07143
50 1 2.71997 8.17989 5.38851
31 1 6.68098 9.51489 4.20168
41 1 5.41222 10.851 5.42389
54 1 4.06433 9.27555 6.86101
58 1 8.09118 8.17655 5.51354
62 1 9.47495 9.60175 6.86423
2 1 2.63813 2.76067 10.8498
40 1 4.09923 1.20933 9.60951
43 1 5.47598 2.62156 8.11391
35 1 10.796 2.6015 8.15924
48 1 9.68904 1.16969 9.85295
17 1 0.0394 5.55753 10.7095
39 1 1.31246 3.96491 9.43482
52 1 2.64014 5.36122 8.12273
47 1 6.94183 4.039 9.39056
56 1 4.12404 6.77901 9.56222
60 1 8.17974 5.45398 8.05893
64 1 9.54394 6.74259 9.4221
36 1 2.79836 10.859 7.98361
51 1 0.0635 8.21827 7.94377
55 1 1.54028 9.50454 9.35711
59 1 5.45909 8.23866 8.18581
63 1 6.78552 9.45079 9.57819
44 1 8.18023 10.7569 8.34939
ITEM: TIMESTEP
5
ITEM: NUMBER OF ATOMS
64
ITEM: BOX BOUNDS pp pp pp
-3.5559054220144937e-02 1.0897559054220144e+01
-3.5469794271426380e-02 1.0897469794271426e+01
-3.5347931613876504e-02 1.0897347931613876e+01
ITEM: ATOMS id type x y z
4 1 2.62906 0.0273204 2.63124
5 1 1.28094 1.3452 1.28226
11 1 5.45885 2.77999 2.70326
13 1 6.81824 1.15798 1.42109
3 1 10.8173 2.77944 2.62576
10 1 8.15784 2.60617 -0.00278425
12 1 8.26083 0.0425385 2.85439
20 1 2.63018 5.49049 2.63988
21 1 1.19349 6.78974 1.3804
6 1 4.09863 4.1033 1.29192
25 1 5.54793 5.32558 0.0294881
29 1 6.7627 6.81988 1.3294
14 1 9.4025 4.25622 1.17365
28 1 8.18023 5.50292 2.7371
1 1 0.195991 10.6824 0.0679012
18 1 2.57088 8.11982 0.00319872
9 1 5.41461 10.7439 0.0672763
22 1 3.94378 9.5158 1.39812
27 1 5.50335 8.21917 2.69137
19 1 10.7205 8.27203 2.72393
26 1 8.1638 8.15617 -0.0205114
30 1 9.53541 9.50421 1.33491
34 1 2.63263 2.77219 5.32277
37 1 1.36692 1.47921 6.80522
8 1 4.07631 1.36207 4.09904
45 1 6.91442 1.19975 6.83522
16 1 9.56658 1.39224 4.01682
33 1 10.8115 0.152766 5.44461
42 1 8.1525 2.67258 5.46351
7 1 1.25299 4.04691 3.95071
49 1 -0.0175752 5.49712 5.42624
53 1 1.40538 6.92025 6.73528
15 1 6.81528 4.09225 4.00757
24 1 4.15957 6.75125 3.99238
38 1 4.06843 3.9656 6.79329
57 1 5.36646 5.40994 5.40895
61 1 6.75163 6.80862 6.77364
32 1 9.46396 6.84207 4.17571
46 1 9.57699 4.05186 6.70231
23 1 1.24189 9.58194 4.07055
50 1 2.69796 8.22229 5.34728
31 1 6.72805 9.57947 4.18962
41 1 5.39041 10.8979 5.44593
54 1 4.06418 9.31209 6.88403
58 1 8.12334 8.19816 5.5239
62 1 9.50888 9.62106 6.85798
2 1 2.65683 2.70318 10.8812
40 1 4.06138 1.20425 9.61758
43 1 5.46156 2.59161 8.13775
35 1 10.7983 2.59465 8.1965
48 1 9.72071 1.15975 9.85904
17 1 0.00220189 5.53774 10.7581
39 1 1.31603 3.98294 9.48679
52 1 2.6437 5.36056 8.12849
47 1 6.92784 4.03407 9.42158
56 1 4.1042 6.78401 9.56878
60 1 8.18013 5.4928 8.07
64 1 9.5732 6.7947 9.40742
36 1 2.77175 10.9024 8.02175
51 1 0.0158107 8.22909 8.00479
55 1 1.52732 9.52489 9.37456
59 1 5.44097 8.24152 8.20205
63 1 6.78162 9.46519 9.58755
44 1 8.19572 10.8408 8.36531
ITEM: TIMESTEP
10
ITEM: NUMBER OF ATOMS
64
ITEM: BOX BOUNDS pp pp pp
-1.1554569885446231e-01 1.0977545698854463e+01
-1.1511878794543851e-01 1.0977118787945439e+01
-1.1452651470619202e-01 1.0976526514706189e+01
ITEM: ATOMS id type x y z
4 1 2.58919 -0.0529407 2.65708
5 1 1.21055 1.34553 1.27099
11 1 5.45275 2.72118 2.66574
13 1 6.81577 1.13042 1.31899
3 1 10.9137 2.7593 2.58859
10 1 8.17019 2.56672 -0.071656
12 1 8.25172 -0.0648816 2.73628
20 1 2.61191 5.46264 2.59946
21 1 1.15393 6.80404 1.37428
6 1 4.0497 4.05048 1.22946
25 1 5.55453 5.29943 -0.0939819
29 1 6.7818 6.83223 1.26749
14 1 9.49592 4.19125 1.13999
28 1 8.20181 5.45262 2.67123
1 1 0.121635 10.7838 -0.0422178
18 1 2.60892 8.1385 -0.0777253
9 1 5.422 10.9127 -0.0190504
22 1 3.90381 9.5658 1.34196
27 1 5.4854 8.23552 2.70466
19 1 10.8863 8.30755 2.73904
26 1 8.25393 8.14184 -0.122667
30 1 9.54886 9.59208 1.25184
34 1 2.62906 2.7753 5.28488
37 1 1.30257 1.39872 6.82161
8 1 4.06079 1.3059 4.05347
45 1 6.9192 1.1915 6.855
16 1 9.62634 1.34795 3.98457
33 1 10.9302 0.012301 5.46143
42 1 8.14786 2.66421 5.49624
7 1 1.18727 4.04885 3.90288
49 1 -0.0859376 5.48565 5.41237
53 1 1.34909 6.85858 6.75885
15 1 6.81887 4.0559 4.01158
24 1 4.12223 6.73292 3.98711
38 1 4.05307 3.93198 6.81439
57 1 5.3602 5.38298 5.4157
61 1 6.75392 6.76949 6.81414
32 1 9.55572 6.82601 4.16422
46 1 9.64602 4.02104 6.77151
23 1 1.1757 9.64352 4.06769
50 1 2.66428 8.28763 5.2615
31 1 6.79655 9.673 4.13962
41 1 5.35266 11.0181 5.47438
54 1 4.05552 9.41167 6.87339
58 1 8.1874 8.25428 5.53079
62 1 9.58461 9.68104 6.84713
2 1 2.67436 2.62752 10.9494
40 1 4.0264 1.19544 9.65662
43 1 5.44285 2.54785 8.19216
35 1 10.834 2.57731 8.26733
48 1 9.75183 1.14764 9.85844
17 1 -0.0929484 5.48975 10.8509
39 1 1.29766 4.00434 9.56988
52 1 2.64375 5.36319 8.15566
47 1 6.91555 4.00733 9.48707
56 1 4.06168 6.77333 9.61451
60 1 8.20255 5.51308 8.11309
64 1 9.62456 6.87429 9.41653
36 1 2.71927 11.034 8.09485
51 1 -0.0938797 8.25666 8.11564
55 1 1.45348 9.56581 9.45308
59 1 5.41122 8.21274 8.25266
63 1 6.7923 9.52421 9.63503
44 1 8.24289 11.0045 8.39143
ITEM: TIMESTEP
15
ITEM: NUMBER OF ATOMS
64
ITEM: BOX BOUNDS pp pp pp
-2.0313313290962132e-01 1.1065133132909622e+01
-2.0254685629616809e-01 1.1064546856296168e+01
-2.0132190310039366e-01 1.1063321903100391e+01
ITEM: ATOMS id type x y z
4 1 2.55553 -0.143248 2.68753
5 1 1.14926 1.34679 1.26415
11 1 5.44526 2.65711 2.62275
13 1 6.81021 1.10224 1.20982
3 1 11.0112 2.7386 2.54004
10 1 8.18515 2.52726 -0.147184
12 1 8.24059 -0.186124 2.61284
20 1 2.59327 5.43666 2.55375
21 1 1.10807 6.82125 1.35925
6 1 3.99999 3.99635 1.16171
25 1 5.56056 5.27405 -0.227976
29 1 6.80142 6.84702 1.19995
14 1 9.59381 4.1256 1.09864
28 1 8.22917 5.40343 2.6015
1 1 0.0339429 10.889 -0.168824
18 1 2.65041 8.15335 -0.165038
9 1 5.42644 11.0878 -0.112268
22 1 3.86371 9.61942 1.28148
27 1 5.46705 8.25783 2.71304
19 1 11.0619 8.33566 2.75632
26 1 8.34656 8.12921 -0.232508
30 1 9.5597 9.67677 1.16698
34 1 2.62258 2.77166 5.25042
37 1 1.2314 1.31346 6.84005
8 1 4.04411 1.24272 4.00514
45 1 6.92507 1.17619 6.87755
16 1 9.69023 1.30099 3.95791
33 1 11.0605 -0.13672 5.48386
42 1 8.14638 2.65478 5.53062
7 1 1.11963 4.05564 3.8596
49 1 -0.162159 5.47449 5.40192
53 1 1.28714 6.79457 6.78378
15 1 6.82555 4.0168 4.01448
24 1 4.08166 6.71895 3.97813
38 1 4.03622 3.89604 6.8403
57 1 5.35384 5.35568 5.42401
61 1 6.7606 6.73069 6.85219
32 1 9.65078 6.81272 4.1504
46 1 9.72152 3.98805 6.84303
23 1 1.10654 9.71313 4.06561
50 1 2.62695 8.35233 5.174
31 1 6.86613 9.76978 4.08715
41 1 5.31721 11.1482 5.50053
54 1 4.04218 9.52557 6.84932
58 1 8.25459 8.31478 5.537
62 1 9.66432 9.74823 6.8373
2 1 2.69137 2.55344 11.0228
40 1 3.99529 1.18235 9.70074
43 1 5.42456 2.50176 8.25191
35 1 10.8801 2.55778 8.34014
48 1 9.77046 1.1433 9.84264
17 1 -0.195533 5.44056 10.9518
39 1 1.27223 4.02628 9.65556
52 1 2.64051 5.36788 8.1876
47 1 6.90448 3.9762 9.55909
56 1 4.01456 6.75751 9.67151
60 1 8.22965 5.5284 8.16034
64 1 9.68197 6.95541 9.43462
36 1 2.66002 11.1822 8.17041
51 1 -0.209667 8.28712 8.22671
55 1 1.3703 9.60733 9.5404
59 1 5.38538 8.17888 8.31297
63 1 6.80971 9.59288 9.69215
44 1 8.29353 11.174 8.41978
ITEM: TIMESTEP
20
ITEM: NUMBER OF ATOMS
64
ITEM: BOX BOUNDS pp pp pp
-2.8759059514530971e-01 1.1149590595145312e+01
-2.8712841151902690e-01 1.1149128411519026e+01
-2.8511497086908122e-01 1.1147114970869080e+01
ITEM: ATOMS id type x y z
4 1 2.52522 -0.228834 2.71451
5 1 1.09223 1.3448 1.25674
11 1 5.43703 2.59575 2.58086
13 1 6.80394 1.07737 1.10444
3 1 11.1011 2.71682 2.49087
10 1 8.20001 2.49159 -0.220886
12 1 8.2317 11.1308 2.49518
20 1 2.57715 5.41234 2.50776
21 1 1.06249 6.83923 1.34333
6 1 3.95353 3.94438 1.09651
25 1 5.56645 5.25003 11.0742
29 1 6.81975 6.86152 1.13499
14 1 9.68697 4.06351 1.05665
28 1 8.25587 5.35668 2.53373
1 1 -0.0507452 10.9904 -0.291034
18 1 2.69162 8.16712 -0.248943
9 1 5.42916 -0.182855 -0.203538
22 1 3.82523 9.67095 1.22343
27 1 5.44989 8.28026 2.72082
19 1 -0.209484 8.35844 2.76922
26 1 8.43437 8.11804 11.0957
30 1 9.57055 9.75824 1.08428
34 1 2.61638 2.76712 5.21857
37 1 1.16282 1.23142 6.85777
8 1 4.02807 1.18124 3.95818
45 1 6.93041 1.16029 6.89935
16 1 9.74994 1.25448 3.93482
33 1 -0.252686 -0.277599 5.50819
42 1 8.14635 2.64633 5.56325
7 1 1.05706 4.06432 3.82175
49 1 -0.235946 5.46425 5.39382
53 1 1.2287 6.73271 6.80763
15 1 6.83301 3.97862 4.01705
24 1 4.04211 6.70733 3.96944
38 1 4.01964 3.86003 6.86601
57 1 5.34789 5.32903 5.43288
61 1 6.76661 6.69464 6.8874
32 1 9.74086 6.80083 4.13608
46 1 9.79457 3.95543 6.91259
23 1 1.0401 9.78305 4.06419
50 1 2.59476 8.41128 5.09301
31 1 6.93284 9.8626 4.03704
41 1 5.28297 -0.163373 5.52636
54 1 4.0287 9.63687 6.8241
58 1 8.31925 8.37349 5.54244
62 1 9.73982 9.81369 6.82761
2 1 2.70515 2.48391 11.0959
40 1 3.96769 1.16755 9.74163
43 1 5.40795 2.459 8.30963
35 1 10.9261 2.54032 8.40958
48 1 9.78773 1.1391 9.8271
17 1 11.1439 5.39186 11.0504
39 1 1.24648 4.04862 9.73811
52 1 2.63717 5.37338 8.21856
47 1 6.89334 3.94528 9.62925
56 1 3.96854 6.74101 9.72785
60 1 8.2552 5.54007 8.2055
64 1 9.73658 7.03186 9.45448
36 1 2.60086 -0.111636 8.24115
51 1 11.1202 8.3194 8.33099
55 1 1.29044 9.64777 9.62593
59 1 5.36052 8.14598 8.37191
63 1 6.8272 9.66022 9.74742
44 1 8.34169 -0.0999364 8.44709
