128
Lattice="0.0 6.4 6.4 6.4 0.0 6.4 6.4 6.4 0.0" Properties=species:S:1:pos:R:3:forces:R:3 energy=0.0528873192643855 pbc="T T T"
Na       0.00036947       0.00049306      -0.00133199       0.62592382       0.08660028       0.56400595
Cl       1.59973469       0.00126873      -0.00137683       0.01133937       0.53751468       0.27217644
Na       1.60002374       1.59889240       0.00013660       0.54488214       0.14345119       0.95226683
Cl       3.19923094       1.60029658      -0.00087074       0.97885793       0.79735167       0.33470178
Na       3.20001665       3.20251953       0.00043267       0.23440295       0.77034039       0.02813614
Cl       4.79857857       3.20100589      -0.00042173       0.24915460       0.27716423       0.25204473
Na       4.80085337       4.79901786       0.00050334       0.82889669       0.76660872       0.66030822
Cl       6.40110111       4.80015720       0.00064855       0.26821523       0.13010096       0.70811565
Na       1.60101546       0.00201252       1.59947731       0.19300304       0.91535565       0.74334223
Cl       3.19923275       0.00079457       1.60031696       0.08562252       0.38860083       0.62648591
Na       3.20128308       1.59900521       1.59950134       0.55431913       0.93083282       0.50979960
Cl       4.80058090       1.60047432       1.60103691       0.37277807       0.21672243       0.81883085
Na       4.80006125       3.20090217       1.59882596       0.26254393       0.58101557       0.91319968
Cl       6.39901129       3.19981373       1.60219845       0.33715374       0.35183959       0.74330237
Na       6.39769280       4.80106899       1.59938994       0.86701132       0.69259498       0.44012446
Cl       7.99995662       4.79926241       1.59966575       0.78948561       0.91882314       0.58375015
Na       3.20025907       0.00121038       3.20041547       0.04193437       0.54518453       0.40817227
Cl       4.80038892      -0.00102333       3.20057131       0.39404641       0.22034198       0.94049690
Na       4.80015736       1.60046003       3.20025833       0.07972664       0.22422850       0.31839048
Cl       6.40081256       1.60040197       3.19991801       0.85052294       0.26804367       0.24027136
Na       6.40004039       3.20008540       3.20143701       0.09515842       0.59108978       0.60596734
Cl       8.00042791       3.19956660       3.19984550       0.62429356       0.03199731       0.97184900
Na       7.99775901       4.79961348       3.19972101       0.72306198       0.41231319       0.94751346
Cl       9.59974879       4.80129889       3.19785596       0.66528003       0.38278559       0.42117579
Na       4.80071714      -0.00054826       4.80021766       0.35930584       0.74208512       0.59345770
Cl       6.39871781      -0.00009562       4.79886623       0.66856681       0.02482256       0.82671465
Na       6.39904628       1.60121554       4.80049526       0.40409150       0.09194811       0.40338296
Cl       8.00164409       1.59986697       4.80030925       0.92394752       0.43187631       0.78424734
Na       8.00078577       3.19904924       4.80126490       0.57872678       0.94334687       0.19355305
Cl       9.59978551       3.20018383       4.79975954       0.92396901       0.91372384       0.28628312
Na       9.59969614       4.79854525       4.80174287       0.31686832       0.54081159       0.68213955
Cl      11.20014574       4.79855940       4.80026361       0.52494141       0.47952941       0.53808963
Na       0.00024355       1.60077389       1.60072794       0.95988391       0.95924279       0.62113162
Cl       1.59868071       1.59999476       1.59958040       0.34166680       0.58527860       0.71807599
Na       1.59958073       3.20035829       1.59881050       0.49960178       0.07485216       0.57123076
Cl       3.20094721       3.20165113       1.60022454       0.46828871       0.63107113       0.68075586
Na       3.20062482       4.80029239       1.60102247       0.06701446       0.60620172       0.02853971
Cl       4.80116204       4.79854840       1.60137026       0.34812546       0.34074786       0.67831403
Na       4.80052913       6.40114922       1.60232724       0.52238644       0.51042503       0.32222486
Cl       6.39972271       6.40203957       1.60044726       0.55083642       0.19406839       0.82499454
Na       1.59921150       1.59917511       3.19956395       0.07699870       0.97240964       0.24843524
Cl       3.20179097       1.60145887       3.20058072       0.19710050       0.03476442       0.18978474
Na       3.20157550       3.20009072       3.19966712       0.04112754       0.89486762       0.40950455
Cl       4.80022393       3.19950320       3.20089131       0.12611481       0.17129322       0.49380336
Na       4.80037291       4.79825748       3.20035732       0.53880722       0.00497733       0.72827872
Cl       6.39879378       4.80111135       3.20056879       0.66963640       0.22267667       0.47130411
Na       6.40123800       6.40049170       3.20192732       0.06926251       0.03541114       0.17358872
Cl       7.99838474       6.40048165       3.19929551       0.90459905       0.30566326       0.18675683
Na       3.20064358       1.59886460       4.80155723       0.52311859       0.43102322       0.19614821
Cl       4.80102412       1.59942459       4.80123249       0.27208711       0.45831606       0.23585542
Na       4.80084955       3.20036919       4.79915604       0.94667879       0.74110874       0.93330182
Cl       6.40078919       3.19912943       4.79886062       0.99053486       0.27007373       0.76461529
Na       6.39925593       4.79986240       4.80077251       0.92849931       0.80138476       0.85176857
Cl       7.99856793       4.79891902       4.79876491       0.48857560       0.62262083       0.10362712
Na       8.00078841       6.39893433       4.80000027       0.92863903       0.45710142       0.30133633
Cl       9.60047778       6.39878992       4.79896793       0.17632273       0.08408732       0.23317687
Na       4.80024910       1.60077279       6.39929774       0.89774492       0.38705134       0.68713127
Cl       6.40145194       1.60151438       6.39992292       0.32564340       0.67956267       0.74297008
Na       6.39996297       3.20006820       6.40086606       0.02560482       0.63973366       0.13010993
Cl       7.99956631       3.19982002       6.40020449       0.16265506       0.47386887       0.65412061
Na       8.00232602       4.79983231       6.40142935       0.15428499       0.98709400       0.63604519
Cl       9.59951798       4.80117475       6.40071872       0.94879527       0.61855288       0.96452165
Na       9.59935180       6.39882684       6.40096169       0.32256543       0.02269155       0.37038553
Cl      11.20150302       6.39967020       6.40016113       0.82277290       0.11028386       0.54378088
Na       0.00191902       3.20042187       3.19930654       0.21765677       0.37595682       0.94971213
Cl       1.59984615       3.19979854       3.20103238       0.78443783       0.28469264       0.05366136
Na       1.60070020       4.80004189       3.19996522       0.28415044       0.52021251       0.48813082
Cl       3.19997403       4.80032891       3.19955706       0.80976571       0.12750674       0.56223942
Na       3.19840952       6.39834395       3.20017910       0.83587816       0.85061550       0.06019944
Cl       4.80037309       6.39986819       3.19933794       0.24707519       0.45616257       0.17590064
Na       4.80149192       8.00007260       3.20055794       0.97179931       0.41585452       0.53731928
Cl       6.40235524       7.99977964       3.19994999       0.92294585       0.71802224       0.31174526
Na       1.60092934       3.19936589       4.79971238       0.01553964       0.48290687       0.58361929
Cl       3.19950988       3.19933125       4.79969402       0.41067040       0.71314209       0.13181833
Na       3.20044010       4.79862449       4.80139199       0.63055693       0.09092690       0.56616730
Cl       4.80157370       4.80184424       4.79856867       0.33336472       0.87220017       0.85411019
Na       4.80010584       6.40203649       4.80032199       0.76898518       0.59495485       0.01846240
Cl       6.39777593       6.40067030       4.79983376       0.01806613       0.09977546       0.01927545
Na       6.39918416       8.00099552       4.79889006       0.66660997       0.17903347       0.03238982
Cl       7.99798723       7.99865441       4.79994333       0.61047859       0.30471522       0.01393239
Na       3.19945240       3.20066578       6.39952183       0.27117063       0.27666220       0.53533153
Cl       4.80113369       3.19878004       6.39829519       0.49201555       0.89928085       0.86500138
Na       4.79927341       4.80010229       6.40022815       0.16087882       0.33300842       0.80030710
Cl       6.39801036       4.80001014       6.40158935       0.02366725       0.73249135       0.78986687
Na       6.40084487       6.39760879       6.39993650       0.05862414       0.64768772       0.21592793
Cl       8.00033759       6.39934498       6.40074138       0.55041417       0.44815788       0.34752227
Na       7.99865134       7.99956646       6.39903140       0.39864249       0.77285181       0.83752448
Cl       9.60216038       8.00053868       6.39971710       0.44558564       0.84558916       0.93776518
Na       4.80034235       3.19918517       7.99921657       0.92680787       0.16378889       0.66944801
Cl       6.39981199       3.20012966       8.00025767       0.11918654       0.36729750       0.25110322
Na       6.39848823       4.80157582       7.99820460       0.07596821       0.49069456       0.92802490
Cl       7.99974291       4.79983903       7.99988283       0.64894698       0.35228942       0.90948368
Na       8.00005395       6.40032420       8.00164738       0.05825820       0.39525244       0.02851308
Cl       9.59924082       6.39849524       8.00157810       0.42338928       0.23154454       0.21124360
Na       9.60114875       7.99898483       8.00116941       0.09508028       0.64923064       0.87020710
Cl      11.20193915       8.00062342       7.99917439       0.71844877       0.66113612       0.89810089
Na       0.00124528       4.80008807       4.80028827       0.01558212       0.01066087       0.59987656
Cl       1.60078299       4.80123362       4.80009696       0.63732050       0.23782837       0.44591884
Na       1.60001569       6.39942392       4.79910738       0.03580703       0.40961755       0.09891856
Cl       3.19973378       6.39893166       4.79893412       0.91776200       0.70599348       0.07325811
Na       3.19968102       7.99849528       4.80038839       0.11907451       0.53106971       0.70949297
Cl       4.80118250       7.99897094       4.79923569       0.72920990       0.75493989       0.32509107
Na       4.79890466       9.59905258       4.80085028       0.92183903       0.37578993       0.75867696
Cl       6.40115583       9.59995772       4.79842501       0.63204963       0.75412733       0.93892841
Na       1.59897927       4.80184051       6.39892096       0.17428398       0.81439785       0.27558490
Cl       3.20203072       4.79977224       6.40072718       0.12021391       0.00358807       0.47477861
Na       3.19927921       6.40034325       6.39882880       0.53472122       0.40362556       0.63029587
Cl       4.79956420       6.39897576       6.39862683       0.82452849       0.03350728       0.89066990
Na       4.80069179       8.00102047       6.39989104       0.55602377       0.46092773       0.82439038
Cl       6.39976523       7.99752808       6.40113794       0.51326643       0.09531332       0.70415455
Na       6.39970354       9.60026974       6.39938831       0.44463031       0.50076229       0.44029984
Cl       7.99845469       9.59915674       6.39872351       0.79945289       0.64162300       0.29152932
Na       3.19856774       4.80006741       7.99994772       0.83073540       0.30548572       0.03712964
Cl       4.79984638       4.79955770       7.99987785       0.31013859       0.45317767       0.38206065
Na       4.80088023       6.40172834       7.99961474       0.14464608       0.71611142       0.42219084
Cl       6.39822715       6.40052346       8.00155121       0.83522247       0.36160757       0.17112275
Na       6.39837122       7.99868435       8.00057308       0.55853938       0.04050703       0.78920623
Cl       7.99937945       8.00026544       8.00015121       0.63962496       0.07453576       0.73146108
Na       7.99889200       9.59962155       7.99910106       0.94270348       0.00616217       0.97533206
Cl       9.59943881       9.60032785       7.99910209       0.32737383       0.14494586       0.13740764
Na       4.79926629       4.79923750       9.59967390       0.25121819       0.41732562       0.40322805
Cl       6.39896026       4.79912840       9.60073539       0.61152717       0.21171023       0.07862783
Na       6.40070866       6.40088398       9.60282166       0.72765024       0.29466689       0.39176804
Cl       8.00098295       6.39949109       9.59999003       0.03249645       0.18368894       0.39309143
Na       8.00179512       8.00096298       9.60038090       0.17829952       0.51741758       0.34667549
Cl       9.60095893       8.00061547       9.60091726       0.25432672       0.34194805       0.85983248
Na       9.59829471       9.60024790       9.59930432       0.14432748       0.55126631       0.02194804
Cl      11.20049851       9.60062643       9.60117193       0.47893793       0.13554562       0.55204426
128
Lattice="0.0 6.4 6.4 6.4 0.0 6.4 6.4 6.4 0.0" Properties=species:S:1:pos:R:3:forces:R:3 energy=0.7903616910299441 pbc="T T T"
Na       0.00047772       0.00059491       0.00025485       0.32631623       0.78274227       0.17873877
Cl       1.60118333       0.00029554      -0.00053826       0.43583835       0.18552733       0.19027030
Na       1.59923933       1.59950651      -0.00000492       0.23359018       0.34274056       0.30609115
Cl       3.20067610       1.60160301       0.00093140       0.04426918       0.57169288       0.06439047
Na       3.19978554       3.20105634       0.00022513       0.96795782       0.72885987       0.31144649
Cl       4.80008256       3.20187918      -0.00039969       0.09305285       0.83385613       0.29430514
Na       4.80282202       4.80108355       0.00032710       0.48493484       0.22000088       0.87240093
Cl       6.39981472       4.79852805      -0.00069830       0.51460309       0.16459498       0.69745057
Na       1.59915505      -0.00006027       1.60225667       0.42687260       0.63547219       0.18874266
Cl       3.20199798      -0.00067242       1.60023664       0.14200004       0.22050550       0.43449565
Na       3.20148248       1.59943418       1.59846854       0.63505769       0.60055357       0.58508605
Cl       4.79981839       1.60027520       1.59947689       0.07660267       0.48843342       0.72347732
Na       4.80056864       3.19982872       1.60015534       0.23934708       0.94836863       0.75594095
Cl       6.40042505       3.19931447       1.59988323       0.40263995       0.94326074       0.67728345
Na       6.40051558       4.80073758       1.60042734       0.24289865       0.09964767       0.05687157
Cl       8.00117742       4.80051899       1.59980462       0.57745648       0.57303396       0.32964407
Na       3.20154247       0.00006834       3.20134219       0.57068682       0.23977844       0.08409283
Cl       4.80031130       0.00205736       3.20062558       0.07075187       0.09068375       0.37208186
Na       4.79899021       1.59869796       3.19956197       0.09151897       0.81267336       0.99174700
Cl       6.40061802       1.59922680       3.19996056       0.70066135       0.83474546       0.78954638
Na       6.39913434       3.19931643       3.19913945       0.33253248       0.51250853       0.40407356
Cl       8.00002569       3.19983563       3.19967028       0.65745744       0.84208798       0.16070511
Na       8.00039609       4.80076273       3.19960980       0.71732615       0.41398550       0.34991648
Cl       9.60055709       4.79894377       3.19953094       0.05141300       0.34896968       0.61376373
Na       4.80040246       0.00048487       4.80161382       0.03694682       0.00823178       0.53903664
Cl       6.39939184      -0.00172044       4.79695145       0.53830230       0.53432751       0.06712608
Na       6.39989642       1.60044554       4.80027679       0.26414603       0.11620031       0.32749818
Cl       8.00068076       1.60074407       4.80156292       0.79748881       0.47642916       0.27817837
Na       8.00156551       3.20051393       4.80059187       0.64416438       0.05098716       0.23268684
Cl       9.59987731       3.19987554       4.79860531       0.07657289       0.10903682       0.54155293
Na       9.60141288       4.79713416       4.79994420       0.03657696       0.74036126       0.47114432
Cl      11.19971396       4.79914821       4.80185503       0.14588704       0.98143369       0.18765900
Na       0.00126236       1.59943030       1.60033627       0.87949743       0.50986696       0.22015462
Cl       1.60014171       1.59983577       1.59893896       0.72127946       0.59820675       0.00953197
Na       1.59913464       3.20074055       1.60148478       0.32820650       0.36079987       0.14916163
Cl       3.19956560       3.19923436       1.59754677       0.32915998       0.97867588       0.46442714
Na       3.20074165       4.79999766       1.59824229       0.51561169       0.01043559       0.21513194
Cl       4.79825732       4.79928350       1.60166479       0.11776196       0.88831156       0.92036354
Na       4.79856620       6.40024074       1.59963158       0.43119105       0.15768145       0.47595453
Cl       6.40129973       6.40010952       1.60110979       0.74323342       0.83031157       0.48408469
Na       1.60028429       1.59762946       3.19986845       0.94841414       0.69011557       0.39855838
Cl       3.19986836       1.60082844       3.20057460       0.84375463       0.42240955       0.61492190
Na       3.20124770       3.20041832       3.19991173       0.81691387       0.84726801       0.30158858
Cl       4.79969381       3.19883984       3.19775859       0.14289674       0.56619468       0.44907940
Na       4.80175985       4.80017499       3.19907068       0.80442898       0.39804566       0.84256118
Cl       6.40064785       4.80038895       3.19946845       0.34848304       0.83010642       0.19118174
Na       6.39955014       6.39917151       3.20131566       0.44144693       0.52979969       0.03246046
Cl       7.99789069       6.39928706       3.19884474       0.63671855       0.37823497       0.84839706
Na       3.20008413       1.60032985       4.79936871       0.55786438       0.57796802       0.97906364
Cl       4.79946666       1.60164216       4.79961076       0.87824042       0.74042133       0.18772218
Na       4.80070150       3.19809212       4.79984719       0.40188761       0.06341288       0.45641300
Cl       6.40034784       3.19859267       4.79986452       0.82544625       0.67108784       0.40604886
Na       6.40000775       4.79985609       4.80039205       0.01521887       0.58413822       0.30477629
Cl       7.99967652       4.79959527       4.79876497       0.35657924       0.19748662       0.86645355
Na       7.99912362       6.40007086       4.79995038       0.82014206       0.72503168       0.75221775
Cl       9.60054213       6.40025410       4.80053577       0.34948166       0.94299213       0.20926039
Na       4.79933330       1.60025715       6.40030921       0.48518440       0.18614925       0.35296872
Cl       6.40110192       1.59996103       6.40130573       0.36865568       0.61713843       0.27639047
Na       6.39910867       3.20097387       6.39892224       0.03921435       0.64391783       0.96201594
Cl       7.99801516       3.19981180       6.40097461       0.57232044       0.21199880       0.48683590
Na       7.99937818       4.79850865       6.39913659       0.84463630       0.68657258       0.53882520
Cl       9.59959036       4.79931388       6.40020985       0.03561811       0.77527279       0.54941897
Na       9.60070926       6.40009061       6.39924815       0.46207661       0.33566223       0.22449377
Cl      11.20005474       6.39793623       6.40057916       0.18455464       0.32538175       0.97403468
Na      -0.00046237       3.19867612       3.19929041       0.50752828       0.14376129       0.01522737
Cl       1.60069556       3.20038406       3.20228046       0.94332148       0.78154481       0.45093066
Na       1.60257626       4.79993507       3.20200144       0.02784042       0.33088938       0.14938648
Cl       3.20070836       4.79906549       3.20063462       0.71206707       0.74908625       0.37278236
Na       3.19969045       6.39913842       3.19952782       0.20075293       0.85736051       0.33764484
Cl       4.80072475       6.40090975       3.20068066       0.44433368       0.99795229       0.43015896
Na       4.79956456       7.99841996       3.20057938       0.57737029       0.22170764       0.25205118
Cl       6.40014826       7.99930722       3.20195480       0.58380227       0.33660532       0.58462708
Na       1.59876818       3.19916431       4.80168614       0.68966183       0.89454778       0.91262824
Cl       3.19940962       3.20089884       4.80024679       0.48941782       0.98468771       0.03404880
Na       3.20117341       4.80093425       4.79907742       0.66304102       0.16598748       0.23461043
Cl       4.79892330       4.79730041       4.80028665       0.59870513       0.49348074       0.03996033
Na       4.79976391       6.39962506       4.80035964       0.14927850       0.70857046       0.53174913
Cl       6.40018840       6.39747274       4.79927851       0.41684207       0.69306081       0.65276125
Na       6.39780268       7.99920835       4.80208777       0.06956418       0.00674791       0.39796000
Cl       7.99942821       7.99858752       4.80085975       0.03337163       0.35878932       0.42376312
Na       3.19847247       3.20013401       6.40062414       0.85822968       0.46798965       0.81824264
Cl       4.79822603       3.19962159       6.40026444       0.53764006       0.35644305       0.29578708
Na       4.79873718       4.79923508       6.40102141       0.89539958       0.32155653       0.67497796
Cl       6.40058585       4.79845284       6.39965278       0.39289696       0.18560570       0.11965308
Na       6.40147817       6.39951236       6.39979860       0.78503682       0.93734334       0.45145821
Cl       8.00093122       6.40018559       6.39906947       0.58222396       0.91579237       0.81979948
Na       8.00050677       8.00007852       6.39960975       0.39838006       0.63870271       0.18904047
Cl       9.59846862       7.99947432       6.39962381       0.60086953       0.67982429       0.60241356
Na       4.80160979       3.20065586       7.99993759       0.08667031       0.24112963       0.52352998
Cl       6.39927099       3.20172258       7.99853983       0.60399718       0.53921680       0.13105118
Na       6.39881553       4.79901655       8.00109762       0.01456154       0.79746325       0.36466771
Cl       7.99820340       4.80077464       8.00052290       0.98447690       0.29272529       0.17194696
Na       7.99782761       6.40008571       8.00007517       0.89618584       0.79328224       0.15362612
Cl       9.59883281       6.40034819       7.99957700       0.54917122       0.02376599       0.62532574
Na       9.60027222       7.99964164       7.99905286       0.88960260       0.71984963       0.33616402
Cl      11.19885686       7.99888728       8.00132381       0.35863696       0.18338556       0.00745448
Na      -0.00148010       4.80040139       4.79918546       0.02362973       0.91990934       0.75492684
Cl       1.59911760       4.80039582       4.79971275       0.56099434       0.17001407       0.31538466
Na       1.60147365       6.40011472       4.80006745       0.20813349       0.52854354       0.47478971
Cl       3.19919273       6.40195221       4.80064860       0.39236889       0.25118071       0.98967412
Na       3.20126062       7.99970346       4.79998981       0.03966274       0.62134749       0.73050041
Cl       4.80153344       7.99924232       4.80044314       0.35045638       0.34388080       0.41534088
Na       4.79943361       9.60056232       4.79888303       0.36010049       0.25404828       0.90446050
Cl       6.39943987       9.60140792       4.80061130       0.35264638       0.62878589       0.50571038
Na       1.60085635       4.80016003       6.40189520       0.65176006       0.88133121       0.77032999
Cl       3.20017285       4.80070345       6.39932054       0.75911058       0.42020032       0.86813127
Na       3.19923415       6.40019126       6.40023133       0.39671165       0.15564012       0.54926538
Cl       4.80017379       6.39977982       6.40128538       0.12148469       0.37294248       0.21378075
Na       4.80127663       7.99824047       6.39911204       0.64292280       0.87724953       0.79674761
Cl       6.40148304       8.00081967       6.40006944       0.06123004       0.29112855       0.80118290
Na       6.40141513       9.60090678       6.40078256       0.63614623       0.34192055       0.73214670
Cl       7.99995921       9.59861265       6.39958973       0.84934362       0.00579863       0.15241493
Na       3.19868464       4.79949610       7.99989948       0.82737779       0.71420800       0.33040294
Cl       4.79958877       4.79976771       7.99860221       0.89981513       0.43557320       0.76896036
Na       4.79985521       6.39834833       7.99880651       0.49498129       0.73538167       0.25246111
Cl       6.39876411       6.39882556       8.00161742       0.66573495       0.21088513       0.31046881
Na       6.40150457       8.00037611       8.00082941       0.57240571       0.63333805       0.97661706
Cl       8.00020786       8.00007929       7.99943527       0.22068778       0.47957149       0.63253581
Na       7.99840031       9.59917875       7.99845372       0.92480648       0.05395892       0.20188462
Cl       9.60057625       9.59882812       7.99924689       0.73941085       0.57030005       0.55363754
Na       4.79955121       4.80149761       9.59960914       0.73928266       0.38185000       0.84989252
Cl       6.40027062       4.79883622       9.59987102       0.85961113       0.84128042       0.28929759
Na       6.40016148       6.40030829       9.60003805       0.63424994       0.38337724       0.87339149
Cl       8.00081888       6.40041946       9.60092729       0.27789251       0.04769418       0.99655496
Na       8.00083969       8.00033697       9.59909639       0.58502528       0.92083698       0.13493932
Cl       9.59947585       8.00011094       9.59943949       0.76919642       0.59955068       0.80057192
Na       9.59804786       9.60008940       9.60090618       0.66835605       0.43157739       0.16510718
Cl      11.19893459       9.60013775       9.59908291       0.09804291       0.58619284       0.53020843
128
Lattice="0.0 6.4 6.4 6.4 0.0 6.4 6.4 6.4 0.0" Properties=species:S:1:pos:R:3:forces:R:3 energy=0.30529845276213197 pbc="T T T"
Na       0.00027146      -0.00062699       0.00043004       0.20925376       0.88103681       0.95438876
Cl       1.59825262      -0.00208444      -0.00104065       0.39801315       0.21108207       0.69862887
Na       1.59828731       1.60004269      -0.00039139       0.40549910       0.59761326       0.28465166
Cl       3.19860043       1.60107166       0.00191038       0.68688542       0.49685652       0.54056411
Na       3.20067659       3.20057774       0.00139280       0.32154830       0.59358245       0.41640458
Cl       4.80135165       3.20063748       0.00157586       0.14061515       0.02851593       0.18511124
Na       4.80086590       4.80035404      -0.00050504       0.62686912       0.71109265       0.33335680
Cl       6.40023394       4.80036061      -0.00139249       0.35330420       0.34525801       0.67757966
Na       1.60054869      -0.00149093       1.59849281       0.85046206       0.23299360       0.18199007
Cl       3.20152934       0.00075629       1.60041871       0.36681116       0.72421151       0.62834798
Na       3.20148189       1.60095030       1.60074511       0.98885932       0.84475133       0.39393551
Cl       4.79965785       1.60001926       1.59937077       0.17015725       0.57699723       0.44963794
Na       4.80101556       3.20101400       1.59871950       0.35655212       0.93831323       0.36727658
Cl       6.40014575       3.19992003       1.60083936       0.66469416       0.37386125       0.55674238
Na       6.39900225       4.80078660       1.60061543       0.23732714       0.69638635       0.34782355
Cl       8.00005881       4.79981263       1.60197099       0.91889988       0.58593421       0.14682078
Na       3.19872823       0.00140607       3.19984430       0.65299165       0.03292329       0.20865781
Cl       4.80167021       0.00085918       3.20227890       0.35932087       0.81093968       0.05154893
Na       4.80012665       1.60053918       3.20066207       0.20277879       0.66100443       0.26719573
Cl       6.39947712       1.59946635       3.20036809       0.93859107       0.17953743       0.62701977
Na       6.39972577       3.19995752       3.19977693       0.95482670       0.95519429       0.76016027
Cl       8.00189852       3.19919055       3.20115738       0.67931229       0.60843400       0.18195793
Na       7.99936149       4.79897204       3.19831817       0.72645603       0.41007353       0.99454175
Cl       9.59948642       4.80047247       3.19894436       0.60632312       0.26908331       0.50743136
Na       4.80045461       0.00057980       4.79805196       0.12957210       0.76836134       0.42781022