64
Lattice="10.862 0.0 0.0 0.0 10.862 0.0 0.0 0.0 10.862" Properties=species:S:1:pos:R:3:force:R:3:descriptors:R:10 PBC="1 1 1" Energy=-263.85375 fim_training_set_score="_JSON [[0.3817816511157972, 6.342931554410089], [6.342931554410089, 140.38179223501828]]" pbc="T T T"
Si      10.75020000       0.04682960      10.98780000       0.76980100      -0.58519600      -1.69297000       0.10959664       0.70226005       0.43322695       0.83154548       0.10648706       0.48001532       0.28962763       0.12343098       0.30058417       0.88153436
Si       2.80294000       2.59682000      -0.05179520       0.20978000       0.99246800       0.13273800       0.91488169       0.19963450       0.92954122       0.91870510       0.85814103       0.68927156       0.44031552       0.21788669       0.54091209       0.74858416
Si       0.14535700       2.73043000       2.74837000       0.67763500      -1.25548000       0.38675000       0.60700019       0.56039264       0.33905300       0.98348266       0.86665691       0.01991573       0.15155500       0.20502138       0.31751806       0.72283354
Si       2.75579000      10.83130000       2.63552000       1.29888000      -0.30364300       0.08623630       0.66222469       0.10348826       0.13427529       0.03499030       0.61564896       0.56522155       0.34371512       0.05068340       0.05389762       0.72366335
Si       1.47887000       1.32635000       1.29194000      -1.41485000       0.21310400       0.89630500       0.66156106       0.57848787       0.70516739       0.33274574       0.25610776       0.74743497       0.87554625       0.31965581       0.06828218       0.19653044
Si       3.99447000       4.03710000       1.37209000       0.44016200       0.19787600      -0.26757000       0.11495296       0.43849003       0.99198718       0.19770431       0.96122522       0.16534846       0.06377707       0.87710152       0.08395150       0.97099443
Si       1.45719000       4.16079000       4.07804000      -1.35168000      -0.71571500      -0.84911500       0.58491679       0.15408656       0.36772321       0.00477242       0.74966099       0.49661291       0.12614502       0.14450612       0.89516072       0.22578781
Si       4.16975000       1.38468000       4.06492000      -0.71396500       0.07065690      -0.62790900       0.81738821       0.19380935       0.57442619       0.42179574       0.54346668       0.80136961       0.15154008       0.42410851       0.99111714       0.52238163
Si       5.50721000       0.12454000      10.69670000       0.63364900      -0.60128400       1.66169000       0.57452079       0.98927960       0.40703223       0.55728053       0.55564959       0.19999670       0.28430639       0.96025254       0.85481076       0.23845486
Si       8.21151000       2.72239000      10.83000000      -0.16796600      -0.12490800      -0.43605400       0.80771273       0.80263794       0.06599531       0.20691785       0.04073934       0.77748666       0.13202848       0.72384990       0.05498956       0.46473822
Si       5.46724000       2.78194000       2.65964000      -0.36952600      -0.55849700       0.36928000       0.17564071       0.07944599       0.41398261       0.69558934       0.35583753       0.39262286       0.60511152       0.80149744       0.81734576       0.03774641
Si       8.10684000       0.06505400       2.76625000       0.83716900      -0.36360900      -0.19787600       0.99603466       0.08951484       0.82742958       0.21390576       0.85269814       0.93376948       0.61665831       0.31698742       0.16237323       0.33399758
Si       6.89898000       1.48823000       1.38563000      -1.27390000      -1.38945000      -1.14269000       0.62559557       0.27343039       0.79050130       0.31236084       0.26796249       0.75315111       0.12710198       0.31586277       0.34752358       0.05994344
Si       9.49545000       3.85232000       1.51295000       0.48764000       2.29329000      -1.76373000       0.62476660       0.09818409       0.56792949       0.54738671       0.46121129       0.43997518       0.90223734       0.36663151       0.25983049       0.96701795
Si       6.87449000       4.03482000       3.97441000      -0.62958600       0.75871600       0.75345700       0.01756560       0.62355632       0.61863608       0.69927812       0.87146959       0.83112599       0.75138943       0.20532490       0.95028611       0.38608917
Si       9.60779000       1.37494000       4.10300000      -0.56620600      -0.10196000       0.53057900       0.92917236       0.52027174       0.06791418       0.91867183       0.38757866       0.59370475       0.42823795       0.16589576       0.74907851       0.46699441
Si      10.83000000       5.33203000       0.06328860       0.51021300      -1.23835000       0.49703700       0.50419886       0.86857974       0.68294624       0.75886857       0.93009307       0.10699185       0.35763863       0.05767840       0.52613143       0.57761510
Si       2.62554000       8.02111000      -0.09482340       1.05990000      -0.01711750       1.49421000       0.71720800       0.91260401       0.74938459       0.67951712       0.66895746       0.41256666       0.01368868       0.00439036       0.75364219       0.59010286
Si      -0.03280920       8.21764000       2.68200000       0.44486200      -2.27987000      -0.72578100       0.07373769       0.26897515       0.03756380       0.69545320       0.65556446       0.30620921       0.30422451       0.20996219       0.74196453       0.45732208
Si       2.71272000       5.45789000       2.75015000       2.23987000      -1.17742000       0.77438300       0.33435527       0.99559208       0.47969039       0.39798888       0.27499575       0.84302137       0.15811435       0.54738846       0.44696183       0.16023644
Si       1.46623000       6.60861000       1.40537000      -2.96054000       2.87204000      -1.07935000       0.17623711       0.12246136       0.81608385       0.16291268       0.26452720       0.20999227       0.08014293       0.63432373       0.53403421       0.72122572
Si       4.11714000       9.45760000       1.09999000      -0.00325291      -0.12121300       2.03648000       0.24776529       0.39258561       0.63129449       0.41325206       0.43120987       0.50305716       0.55245658       0.94986323       0.78057365       0.26228286
Si       1.28108000       9.52937000       3.93526000       0.78636500       0.78383700       1.04790000       0.44771144       0.29421593       0.11991561       0.13704535       0.27124552       0.28754688       0.74575385       0.51714393       0.48450628       0.75299719
Si       4.11495000       6.64399000       4.22902000      -0.90983900       0.91619600      -0.03874410       0.17716333       0.88363816       0.64644624       0.03339965       0.45637576       0.17639866       0.83393407       0.10493853       0.36092292       0.24667471
Si       5.37856000       5.32967000      -0.02404730      -0.84487900      -0.47806800      -0.13943900       0.83471309       0.32673911       0.10455317       0.93869098       0.67876346       0.98113505       0.81936029       0.25045483       0.89919533       0.84550212
Si       7.98871000       8.15649000      10.95880000       1.08805000      -0.65561200      -0.55345600       0.36041075       0.52563373       0.19795805       0.32640843       0.74516979       0.66161763       0.52532319       0.61874354       0.13411209       0.97298606
Si       5.39857000       7.98812000       2.81031000      -1.46484000       1.21271000      -1.74256000       0.93672044       0.64010634       0.96616477       0.19089154       0.33283755       0.19838221       0.89869680       0.45303265       0.90559215       0.29239015
Si       8.17623000       5.41942000       2.63100000      -0.48275900       1.45095000       0.33506900       0.49603498       0.97999538       0.40798684       0.30278679       0.72743349       0.14735907       0.32877695       0.36943949       0.37630904       0.88707777
Si       6.55236000       6.77374000       1.22030000       2.24004000      -0.84720700       2.22009000       0.45626384       0.95828528       0.50986893       0.71910167       0.96311588       0.34399183       0.55967495       0.13106698       0.36214975       0.60440504
Si       9.40301000       9.47471000       1.40365000      -0.41008700       0.95570500       0.09309000       0.64001676       0.93945895       0.99391644       0.00072864       0.48622187       0.13184158       0.09269717       0.51830244       0.14937263       0.58916895
Si       6.70915000       9.47638000       3.96773000       1.24157000       0.51465000       1.77464000       0.01282240       0.12439539       0.86411255       0.74937415       0.09372061       0.72166889       0.37155061       0.67253424       0.10602852       0.41509670
Si       9.51697000       6.89474000       4.13035000      -0.08130330      -1.27911000      -0.53820800       0.35916188       0.29235906       0.15644738       0.78397363       0.48359923       0.08122771       0.71605187       0.77773042       0.32571401       0.79325378
Si      10.92410000      10.80940000       5.50476000      -0.30186400       0.44569900       0.03839460       0.85679652       0.46731223       0.56023588       0.79086505       0.78651336       0.79100057       0.01775399       0.88746508       0.57630980       0.25056089
Si       2.73851000       2.83882000       5.32188000       0.89342700      -1.46504000       1.83985000       0.53322246       0.76000115       0.46189067       0.53800652       0.14669298       0.62765830       0.60297661       0.10608984       0.55906846       0.20779174
Si       0.07510880       2.70658000       8.11509000       0.20388100       1.85420000      -0.23657300       0.47324749       0.82298478       0.23732790       0.28253223       0.47405611       0.15711673       0.80814968       0.17902059       0.45514824       0.82737628
Si       2.66256000      -0.00599480       8.17644000       0.90800300      -1.70767000       0.00722322       0.82122305       0.10377984       0.05385061       0.28423943       0.00474015       0.45237499       0.44527887       0.80510754       0.89599867       0.49982924
Si       1.46303000       1.39261000       6.84171000      -0.50680800       0.14014600      -1.87387000       0.60671904       0.77193514       0.12352067       0.13084366       0.05040325       0.95599340       0.52956384       0.75228369       0.79028517       0.03450844
Si       3.96751000       4.28164000       6.76468000      -0.78574200      -0.69692500       0.44946400       0.99445230       0.14337935       0.32350919       0.67948795       0.62335762       0.92620768       0.78147895       0.33402030       0.97717756       0.09610460
Si       1.52308000       4.03370000       9.52569000      -2.16303000       0.11420700       0.31595900       0.84473978       0.66241054       0.60932463       0.48850455       0.37327151       0.70298851       0.42395748       0.45326523       0.48890216       0.29682360
Si       4.12547000       1.38228000       9.37999000      -0.06591810       0.34575300      -0.79963600       0.45405076       0.38226502       0.82792271       0.74646874       0.18666008       0.70586339       0.84606176       0.14757205       0.40883544       0.85434280
Si       5.56273000      10.95320000       5.44213000      -2.21437000      -2.15880000      -1.65984000       0.44353860       0.36651014       0.75996641       0.23486457       0.10955981       0.43120282       0.77438178       0.03326155       0.05680498       0.16926521
Si       8.10627000       2.74857000       5.42785000       1.51937000      -0.46180500      -0.01222980       0.16852867       0.10962344       0.88287328       0.38886404       0.77109216       0.43063146       0.73010118       0.60543905       0.59798637       0.03901838
Si       5.35517000       2.87754000       7.95369000      -0.03529090      -1.44487000       1.02460000       0.28717746       0.26130774       0.35404842       0.02901200       0.39854035       0.59628126       0.01173342       0.48521404       0.64549849       0.01130508
Si       8.15191000       0.13095900       8.11517000      -0.17125900      -1.54238000       0.28785600       0.40819263       0.53710448       0.02963966       0.45079159       0.80620161       0.69499514       0.29398987       0.65809700       0.12834732       0.51540774
Si       6.72574000       1.37554000       6.74868000       1.43834000       1.85523000       1.00495000       0.76774375       0.49752995       0.33427440       0.48085717       0.56703555       0.04115120       0.24097803       0.58789872       0.84141105       0.70638991
Si       9.52552000       4.17809000       6.76117000      -0.42647700      -1.72866000       0.65220200       0.06533125       0.81416782       0.27283816       0.09034025       0.01424640       0.24551844       0.02730010       0.75730669       0.02891690       0.27307808
Si       6.69861000       3.96999000       9.51227000       0.72614100       0.72143000      -0.50541100       0.28556321       0.98295325       0.49352313       0.64238898       0.12295741       0.87110782       0.02550804       0.70492287       0.67242825       0.15734964
Si       9.56031000       1.44442000       9.39987000      -0.25380100      -0.93567800       1.56058000       0.05449225       0.12644573       0.91265561       0.13203479       0.57050682       0.01588518       0.34825876       0.79823849       0.77275431       0.24960595
Si      10.93620000       5.37452000       5.40987000       0.02251140       2.67697000       1.08555000       0.01501027       0.69799137       0.84957439       0.87066073       0.36505699       0.63947786       0.78729004       0.90947048       0.49313360       0.56415111
Si       2.53637000       8.19549000       5.37937000       1.45513000      -1.51619000       0.63789200       0.36461617       0.30087402       0.97685335       0.30677206       0.56952413       0.21115983       0.98523170       0.72498174       0.94150792       0.52710784
Si      10.67360000       8.09906000       8.28130000       1.04335000      -1.12554000       0.63434100       0.24641443       0.20027900       0.83392023       0.81130706       0.01962975       0.19671989       0.72535685       0.38939086       0.22403564       0.09565369
Si       2.68473000       5.61678000       8.32695000       1.79592000      -2.36676000      -0.32610000       0.34867614       0.30963785       0.96435866       0.53931130       0.61231323       0.96962692       0.69933411       0.76944110       0.64663083       0.87428308
Si       1.40067000       6.80240000       7.05920000      -2.71666000       1.36130000      -3.33382000       0.38119231       0.84181605       0.45815101       0.65062641       0.97236958       0.79936754       0.23900190       0.14468370       0.70145701       0.05872632
Si       4.08299000       9.48380000       6.63950000      -0.85423200       1.35069000       0.90942200       0.62443231       0.07383762       0.73104201       0.85087382       0.96617234       0.94123316       0.21604933       0.48618233       0.35355590       0.62300612
Si       1.25546000       9.37761000       9.59093000      -0.67627900       2.26398000      -0.58323000       0.13835140       0.43929361       0.79264007       0.70463775       0.26004229       0.15335682       0.14872519       0.40647370       0.50093643       0.07723301
Si       4.14274000       6.79884000       9.56445000       0.14777800       0.53918300      -0.58903600       0.55882566       0.18021379       0.83052889       0.94006836       0.16270671       0.05198929       0.18989353       0.50228595       0.39762995       0.80130496
Si       5.56216000       5.28501000       5.52859000       0.01960190       1.20480000      -1.39986000       0.59175954       0.44804792       0.91797810       0.39200207       0.13107879       0.24677964       0.20968927       0.28294406       0.06223844       0.47566554
Si       8.13297000       8.22721000       5.50900000      -0.38965400      -0.20483100      -1.44412000       0.01196565       0.18078559       0.36005365       0.26016974       0.99819761       0.68989841       0.08923480       0.42641280       0.14849497       0.03002469
Si       5.37142000       8.19691000       8.09674000       0.93389900      -0.60922500       0.32586400       0.25209274       0.06272756       0.70093739       0.78417368       0.36008691       0.80913277       0.00884336       0.66885403       0.54847622       0.22482912
Si       8.03670000       5.39353000       8.15641000       0.65457700       0.25041800       0.50896500       0.68483150       0.03478803       0.55026143       0.57801513       0.02491301       0.78330661       0.74365800       0.25076964       0.56209511       0.60175422
Si       6.80052000       6.81738000       6.75878000      -0.48235000      -0.04938490       0.97607200       0.98540089       0.89059488       0.68998303       0.65986214       0.40700638       0.39981118       0.55923301       0.24859813       0.25167605       0.35715237
Si       9.49718000       9.44054000       6.89671000      -0.21128400       1.91100000      -0.72149200       0.94202931       0.16055752       0.31868823       0.87014081       0.13476414       0.62652794       0.16443098       0.74936039       0.28283037       0.69729693
Si       6.84004000       9.47142000       9.50324000      -0.58105600       1.34133000      -1.46135000       0.10994616       0.03660478       0.17995071       0.48186210       0.18180100       0.73583081       0.84906376       0.99062575       0.49620244       0.34132794
Si       9.36510000       6.68118000       9.67454000      -0.24627200       0.49895700      -0.60712200       0.42098802       0.48542065       0.11456712       0.22698789       0.00160356       0.64942367       0.36681557       0.70454126       0.14885056       0.95546728
