64
Lattice="10.862 0.0 0.0 0.0 10.862 0.0 0.0 0.0 10.862" Properties=species:S:1:pos:R:3:atomic_forces_forces:R:3:quests_descriptor_descriptors:R:63 energy_energy=-264.67225 energy_per_atom=F quests_descriptor_num_nearest_neighbors=32 quests_descriptor_cutoff=5.0 quests_descriptor_species="_JSON [\"species-agnostic\"]" pbc="T T T"
Si      10.72310000       0.28177000      10.78030000      -0.93634400      -0.57448200      -0.39052800       0.27162627       0.26576651       0.24886213       0.22960611       0.06634123       0.05802317       0.05414587       0.05203429       0.04843975       0.04656026       0.04655523       0.04429885       0.02949486       0.02933130       0.02753754       0.01954933       0.01856137       0.01844798       0.01626295       0.01420143       0.01123472       0.00750616       0.00589122       0.00427964       0.00338060       0.00236683       0.00049779       0.00015898       0.00001799       0.00000000       0.00000000       0.00000000       0.08444198       0.05979130       0.05585191       0.04925235       0.04429660       0.03871983       0.03259648       0.03072508       0.02808155       0.02613478       0.02365757       0.02163323       0.02097042       0.02020380       0.01894805       0.01779480       0.01622869       0.01467882       0.01373873       0.01228102       0.01120199       0.00951678       0.00803860       0.00661023       0.00538077       0.00308927       0.00161355       0.00054973       0.00000000       0.00000000       0.00000000
Si       2.70350000       2.70680000       0.03685430      -0.06544660      -0.32036800      -0.70712300       0.26361521       0.25854460       0.25464863       0.24347205       0.06251522       0.05203429       0.05122034       0.04738889       0.04623984       0.04596478       0.04107242       0.04024998       0.03965050       0.03927378       0.03900198       0.03771742       0.01482976       0.01240941       0.01081891       0.01078280       0.00966298       0.00948546       0.00883004       0.00748707       0.00589584       0.00569819       0.00485903       0.00260061       0.00000000       0.00000000       0.00000000       0.00000000       0.08658226       0.06134976       0.05898049       0.05077373       0.04542277       0.04165752       0.03381848       0.03149135       0.02977705       0.02677420       0.02521551       0.02382006       0.02202100       0.02070352       0.01977909       0.01897469       0.01765003       0.01635298       0.01450534       0.01300061       0.01164095       0.01097349       0.01013916       0.00930453       0.00834701       0.00754387       0.00595570       0.00000000       0.00000000       0.00000000       0.00000000
Si       0.09584860       2.59830000       2.81112000      -0.79358900       0.56652900       0.63834000       0.27526889       0.26350986       0.25877631       0.25373873       0.05461297       0.05414587       0.04882628       0.04657709       0.04623984       0.04567101       0.04404132       0.04191491       0.03978429       0.03727391       0.03689970       0.03664721       0.01230685       0.01115148       0.00987323       0.00939031       0.00857565       0.00715042       0.00709448       0.00679734       0.00569370       0.00482849       0.00407993       0.00024196       0.00000000       0.00000000       0.00000000       0.00000000       0.08476140       0.06054981       0.05819091       0.04966764       0.04395106       0.04051705       0.03264867       0.03048840       0.02816480       0.02606824       0.02425222       0.02292631       0.02121572       0.02001193       0.01931184       0.01789944       0.01650646       0.01497865       0.01338248       0.01158651       0.01046285       0.00971038       0.00906954       0.00841134       0.00759267       0.00658946       0.00212841       0.00000000       0.00000000       0.00000000       0.00000000
Si       2.81072000      10.83850000       2.66985000      -0.16164200      -0.61906100      -0.45518700       0.25961100       0.25052604       0.24776362       0.23983796       0.05257752       0.05136569       0.04882628       0.04779802       0.04778592       0.04738889       0.04484595       0.04257732       0.03808548       0.03444759       0.03383493       0.02949486       0.01184313       0.01139407       0.01082408       0.01014737       0.00913087       0.00778442       0.00678702       0.00612817       0.00474889       0.00460777       0.00454798       0.00307709       0.00000000       0.00000000       0.00000000       0.00000000       0.08365916       0.05889897       0.05660140       0.04858255       0.04394976       0.04013324       0.03188940       0.03021065       0.02803203       0.02563164       0.02347214       0.02191892       0.02090131       0.01984155       0.01885615       0.01769050       0.01632186       0.01485929       0.01345879       0.01166764       0.01079862       0.00995813       0.00921146       0.00827093       0.00759795       0.00693381       0.00600286       0.00000000       0.00000000       0.00000000       0.00000000
Si       1.32945000       1.32505000       1.37813000       1.04399000       0.05741660      -0.24365800       0.27526889       0.26576651       0.25464863       0.25052604       0.05930822       0.05299515       0.04682465       0.04570769       0.04449202       0.04404884       0.04153033       0.04136353       0.04009577       0.03377670       0.03272644       0.02035410       0.01828495       0.01113421       0.00978270       0.00950816       0.00877693       0.00803472       0.00621347       0.00584279       0.00572783       0.00532045       0.00492722       0.00325881       0.00000000       0.00000000       0.00000000       0.00000000       0.08455255       0.06047538       0.05772922       0.04891613       0.04455907       0.03842909       0.03209787       0.02996279       0.02725289       0.02489432       0.02336103       0.02208025       0.02088145       0.01977607       0.01873494       0.01740588       0.01589001       0.01462699       0.01336952       0.01224437       0.01100571       0.01012809       0.00914717       0.00874067       0.00794668       0.00708524       0.00603277       0.00000000       0.00000000       0.00000000       0.00000000
Si       4.01037000       4.11597000       1.34974000       0.83703600      -0.42630200       0.05162630       0.26531844       0.26361521       0.25731186       0.25681471       0.06922380       0.05058618       0.05006163       0.04970581       0.04767186       0.04399169       0.04153033       0.04078751       0.03845315       0.03712470       0.03629806       0.03396441       0.01846225       0.00987323       0.00906424       0.00778442       0.00749601       0.00725097       0.00704550       0.00651704       0.00599633       0.00576746       0.00547437       0.00539018       0.00000000       0.00000000       0.00000000       0.00000000       0.08616093       0.06140886       0.05937172       0.05121737       0.04518194       0.04112156       0.03347297       0.03122107       0.02838935       0.02616159       0.02458177       0.02348434       0.02193590       0.02096626       0.01950827       0.01800190       0.01664828       0.01530535       0.01378263       0.01259962       0.01131316       0.01016911       0.00927924       0.00880605       0.00826743       0.00766332       0.00692329       0.00000000       0.00000000       0.00000000       0.00000000
Si       1.39045000       4.02570000       4.15255000       0.49883400      -0.45572800       0.42225100       0.25877631       0.25554904       0.25492932       0.24147729       0.05892417       0.05473093       0.04665366       0.04659197       0.04399169       0.04386773       0.04322065       0.04136353       0.04007475       0.03950640       0.03950200       0.03872469       0.01810306       0.01371245       0.01340370       0.01160824       0.01036547       0.00893587       0.00761277       0.00748707       0.00743668       0.00690696       0.00678702       0.00657726       0.00000000       0.00000000       0.00000000       0.00000000       0.08727142       0.06208760       0.05957934       0.05162423       0.04663340       0.04220827       0.03356360       0.03235275       0.03010819       0.02692206       0.02564513       0.02473362       0.02269542       0.02106878       0.02030747       0.01973074       0.01869752       0.01703522       0.01559190       0.01379064       0.01296293       0.01217593       0.01097017       0.00989146       0.00929644       0.00851812       0.00787915       0.00000000       0.00000000       0.00000000       0.00000000
Si       4.18430000       1.38854000       3.94094000      -1.31846000      -0.77385800       1.56680000       0.28200012       0.25961100       0.25527148       0.24437946       0.05211398       0.04970581       0.04889949       0.04404884       0.04322065       0.04261924       0.04167525       0.04077322       0.04072460       0.03766876       0.03701208       0.03071982       0.01240941       0.01179506       0.01115148       0.01033457       0.00937384       0.00876133       0.00785727       0.00651758       0.00487852       0.00483455       0.00434563       0.00124700       0.00000000       0.00000000       0.00000000       0.00000000       0.08403271       0.05991289       0.05773717       0.04878049       0.04303760       0.03989485       0.03125917       0.03005533       0.02776180       0.02608728       0.02400530       0.02233742       0.02048887       0.01968553       0.01902469       0.01774616       0.01667519       0.01520522       0.01361099       0.01185970       0.01099316       0.01009230       0.00941514       0.00836205       0.00756427       0.00680251       0.00463228       0.00000000       0.00000000       0.00000000       0.00000000
Si       5.48617000       0.01030720      10.79610000      -1.53005000       0.57165100      -1.28519000       0.28080358       0.27121916       0.26004626       0.22087632       0.05657339       0.05465429       0.04818746       0.04745193       0.04620875       0.04484595       0.04299891       0.04216324       0.04135433       0.04127714       0.04107242       0.04054992       0.01033457       0.01020622       0.00982621       0.00927761       0.00889953       0.00874280       0.00816591       0.00777524       0.00624841       0.00547437       0.00532045       0.00372674       0.00000000       0.00000000       0.00000000       0.00000000       0.08660934       0.06191359       0.05789430       0.05072377       0.04548708       0.04174886       0.03340976       0.03186853       0.02885180       0.02654248       0.02528166       0.02404482       0.02141435       0.02089269       0.01990625       0.01841938       0.01725976       0.01557948       0.01405842       0.01238657       0.01120773       0.01038220       0.00958496       0.00901682       0.00821028       0.00772876       0.00678857       0.00000000       0.00000000       0.00000000       0.00000000
Si       8.18336000       2.80209000      10.89930000       0.20332500      -0.82936900      -0.16243600       0.26610343       0.25086277       0.24424606       0.23715902       0.06634123       0.05897307       0.05215812       0.05147772       0.04906308       0.04578867       0.04508741       0.04054992       0.04048692       0.03727391       0.03497074       0.02916994       0.01474779       0.01156026       0.01133436       0.01117476       0.01090244       0.00932440       0.00877693       0.00797380       0.00698093       0.00611594       0.00599633       0.00415182       0.00000000       0.00000000       0.00000000       0.00000000       0.08768397       0.06142365       0.05854812       0.05092931       0.04654768       0.04204994       0.03460838       0.03192596       0.02981832       0.02748961       0.02565954       0.02358590       0.02214438       0.02118987       0.02020268       0.01877455       0.01762218       0.01647620       0.01512974       0.01341895       0.01217598       0.01131798       0.01030696       0.00953079       0.00895303       0.00812666       0.00744996       0.00000000       0.00000000       0.00000000       0.00000000
Si       5.42597000       2.71828000       2.61261000       1.24511000       0.71095100      -0.15598600       0.28200012       0.25681471       0.25139484       0.24197795       0.05122034       0.04916511       0.04906308       0.04830755       0.04779802       0.04620875       0.04406173       0.03858828       0.03750325       0.03739488       0.03684566       0.03676678       0.01627600       0.01141578       0.00848795       0.00803472       0.00761277       0.00730810       0.00725143       0.00708277       0.00625917       0.00600295       0.00521371       0.00320807       0.00000000       0.00000000       0.00000000       0.00000000       0.08574839       0.06016801       0.05747104       0.04961320       0.04427214       0.04121219       0.03201127       0.03108796       0.02799332       0.02561564       0.02408889       0.02291074       0.02107581       0.02021037       0.01935018       0.01802700       0.01681745       0.01504758       0.01366438       0.01227640       0.01111768       0.01005200       0.00933444       0.00862689       0.00808224       0.00741361       0.00625374       0.00000000       0.00000000       0.00000000       0.00000000
Si       8.13817000      -0.13108200       2.48971000       0.64682900       1.56471000       1.77658000       0.27095906       0.26424370       0.26146557       0.21636290       0.06928556       0.05802317       0.05657339       0.04971184       0.04770883       0.04508741       0.03719290       0.03676678       0.03664721       0.02754651       0.02117147       0.02033751       0.01803728       0.01556152       0.01319257       0.00978270       0.00876133       0.00771487       0.00556687       0.00555659       0.00506693       0.00394773       0.00335599       0.00091245       0.00000000       0.00000000       0.00000000       0.00000000       0.08265912       0.05926903       0.05664863       0.04870233       0.04344326       0.03791607       0.03252696       0.02960353       0.02723503       0.02516106       0.02308737       0.02153317       0.02032540       0.01936222       0.01842073       0.01688465       0.01540743       0.01393763       0.01304967       0.01175085       0.01069476       0.00976412       0.00871608       0.00795517       0.00709134       0.00597190       0.00375159       0.00000000       0.00000000       0.00000000       0.00000000
Si       6.77832000       1.31033000       1.25171000       0.64898100       1.07040000       0.51351600       0.28080358       0.26146557       0.25139484       0.25086277       0.05384242       0.05233453       0.05211398       0.05091049       0.04440318       0.04310051       0.03959709       0.03823703       0.03815847       0.03773345       0.03653794       0.03629806       0.01626295       0.01274886       0.01082408       0.00940791       0.00883004       0.00861929       0.00759253       0.00663042       0.00625231       0.00433189       0.00407993       0.00341552       0.00000000       0.00000000       0.00000000       0.00000000       0.08558673       0.06127689       0.05843995       0.05047507       0.04444495       0.04034299       0.03266735       0.03096217       0.02853267       0.02593311       0.02439965       0.02298656       0.02142988       0.02018986       0.01933530       0.01875100       0.01723904       0.01566059       0.01390346       0.01231301       0.01138403       0.01044670       0.00957598       0.00867066       0.00808104       0.00703975       0.00642206       0.00000000       0.00000000       0.00000000       0.00000000
Si       9.62247000       4.02015000       1.54049000      -1.05453000      -1.15363000      -0.44997900       0.28513658       0.26600864       0.26350986       0.24424606       0.06015578       0.05473093       0.05391906       0.05299515       0.05267391       0.04529538       0.04514746       0.04279656       0.03653794       0.03450085       0.03271306       0.02654242       0.01954933       0.01541314       0.01497055       0.01383507       0.01081891       0.00946601       0.00771487       0.00730810       0.00392939       0.00329296       0.00288080       0.00244269       0.00000000       0.00000000       0.00000000       0.00000000       0.08783781       0.06244915       0.05987629       0.05097702       0.04605223       0.04200194       0.03416759       0.03207958       0.02990089       0.02672431       0.02494092       0.02335400       0.02216207       0.02118914       0.02012090       0.01911634       0.01761688       0.01626762       0.01507344       0.01342060       0.01226550       0.01086874       0.00963107       0.00818438       0.00747870       0.00673573       0.00549159       0.00000000       0.00000000       0.00000000       0.00000000
Si       6.85162000       4.05940000       4.03820000      -1.54264000       0.41607100      -0.44654600       0.28216642       0.27415333       0.25122010       0.24197795       0.05523985       0.05267391       0.05177592       0.05148483       0.05019753       0.04889949       0.04040932       0.04035313       0.03845315       0.03823703       0.03490350       0.03168704       0.01156026       0.01135120       0.00996136       0.00937629       0.00805101       0.00715042       0.00704600       0.00665965       0.00645502       0.00637242       0.00444047       0.00394773       0.00000000       0.00000000       0.00000000       0.00000000       0.08652410       0.06149032       0.05815217       0.04992916       0.04507673       0.04162202       0.03282436       0.03072278       0.02840383       0.02605490       0.02458760       0.02278502       0.02165865       0.02051415       0.01912560       0.01797338       0.01701749       0.01514819       0.01352746       0.01240288       0.01094422       0.01015994       0.00927569       0.00878298       0.00831475       0.00753614       0.00643509       0.00000000       0.00000000       0.00000000       0.00000000
Si       9.42440000       1.34418000       4.11135000       0.74873700      -1.26424000      -0.14552300       0.25373873       0.25133000       0.21962136       0.21636290       0.05391906       0.05177592       0.05110977       0.04990871       0.04754155       0.04009577       0.03959709       0.03950640       0.03630059       0.03568393       0.03413306       0.03102001       0.01570727       0.00989918       0.00967182       0.00931639       0.00861848       0.00848795       0.00797380       0.00764248       0.00750616       0.00438276       0.00307709       0.00274588       0.00000000       0.00000000       0.00000000       0.00000000       0.08243530       0.05737161       0.05429006       0.04785272       0.04311336       0.03917972       0.03149162       0.02929128       0.02747234       0.02521602       0.02356857       0.02215564       0.02042937       0.01946431       0.01863804       0.01727675       0.01622094       0.01491364       0.01371042       0.01193802       0.01112631       0.01011372       0.00911710       0.00844088       0.00769817       0.00666233       0.00583630       0.00000000       0.00000000       0.00000000       0.00000000
Si      10.94380000       5.19996000       0.16897500      -0.64973600       3.09573000      -0.64255300       0.28907752       0.28513658       0.25426079       0.22676781       0.06251522       0.05897307       0.05461297       0.05001163       0.04885862       0.04785279       0.04604168       0.03830936       0.03583184       0.03159982       0.02887840       0.02228603       0.01846225       0.01828495       0.01340370       0.01152343       0.01115736       0.00766373       0.00720100       0.00617591       0.00614226       0.00472358       0.00399610       0.00179623       0.00015898       0.00000000       0.00000000       0.00000000       0.08669021       0.06194646       0.05935201       0.05048302       0.04562823       0.04095804       0.03423516       0.03109434       0.02906311       0.02694206       0.02433154       0.02304833       0.02167135       0.02078454       0.01984956       0.01840761       0.01691165       0.01549442       0.01439249       0.01347567       0.01172848       0.01081064       0.00991913       0.00875005       0.00779637       0.00723748       0.00538871       0.00174076       0.00000000       0.00000000       0.00000000
Si       2.73899000       8.25597000      -0.04287800      -0.95521000      -0.63648400       0.21318000       0.26941125       0.26430644       0.24720471       0.24451755       0.06463722       0.05758613       0.05136569       0.04745193       0.04663747       0.04534238       0.04230141       0.03951986       0.03439861       0.02896188       0.02887840       0.02753754       0.01113421       0.01089820       0.00871340       0.00848376       0.00817504       0.00789204       0.00776120       0.00762673       0.00748383       0.00651704       0.00553088       0.00447007       0.00000000       0.00000000       0.00000000       0.00000000       0.08504724       0.06028089       0.05704664       0.04853769       0.04459804       0.03965111       0.03259084       0.02960798       0.02723638       0.02580250       0.02363981       0.02248430       0.02075246       0.01963051       0.01839435       0.01705813       0.01593151       0.01480565       0.01384952       0.01231090       0.01120986       0.01016477       0.00950177       0.00889538       0.00824602       0.00783446       0.00694469       0.00000000       0.00000000       0.00000000       0.00000000
Si       0.05888120       7.96576000       2.71954000      -0.12204000       1.41139000      -1.21423000       0.25556582       0.24099266       0.23984825       0.20772404       0.05152954       0.05013115       0.05001163       0.04991940       0.04561070       0.04230141       0.04162659       0.03719290       0.03529847       0.03383493       0.02874013       0.01856137       0.01690394       0.01497055       0.01314242       0.01160824       0.01091253       0.00982916       0.00804449       0.00779114       0.00656446       0.00492722       0.00414873       0.00274588       0.00000000       0.00000000       0.00000000       0.00000000       0.08119156       0.05760937       0.05486754       0.04723994       0.04267934       0.03885134       0.03124713       0.02978621       0.02730637       0.02518254       0.02317884       0.02143844       0.02045364       0.01954817       0.01841060       0.01754288       0.01652030       0.01521968       0.01403346       0.01299293       0.01157062       0.01072922       0.01010658       0.00915707       0.00799260       0.00718655       0.00588767       0.00000000       0.00000000       0.00000000       0.00000000
Si       2.79085000       5.40837000       2.84196000      -0.40319000       0.24342400      -0.07670460       0.26531844       0.25919521       0.25652758       0.25492932       0.05275335       0.05152954       0.04916511       0.04777255       0.04604168       0.04552721       0.04399203       0.04094374       0.03983452       0.03978429       0.03965050       0.02896188       0.01764360       0.01179506       0.01121236       0.00996136       0.00946601       0.00933655       0.00793433       0.00784803       0.00661993       0.00572783       0.00564528       0.00410288       0.00000000       0.00000000       0.00000000       0.00000000       0.08658787       0.06146183       0.05896198       0.05028947       0.04531588       0.04140523       0.03294832       0.03132586       0.02895993       0.02649820       0.02525452       0.02350830       0.02167493       0.02078693       0.01995184       0.01868341       0.01745924       0.01606049       0.01485203       0.01318414       0.01196373       0.01104285       0.01009398       0.00940893       0.00853949       0.00783907       0.00716711       0.00000000       0.00000000       0.00000000       0.00000000
Si       1.54635000       6.67188000       1.30596000      -0.92789000       0.60039000       0.77171700       0.25919521       0.25426079       0.24720471       0.24099266       0.06922380       0.05931350       0.05727240       0.04705959       0.04629514       0.04379059       0.04279656       0.04007475       0.03846808       0.03714789       0.03166568       0.03073444       0.01697901       0.01505316       0.01482976       0.01363935       0.00998788       0.00612817       0.00569370       0.00493795       0.00458107       0.00405362       0.00110728       0.00001799       0.00000000       0.00000000       0.00000000       0.00000000       0.08410905       0.05975990       0.05747877       0.04911812       0.04476011       0.04017289       0.03326207       0.03116596       0.02894606       0.02609530       0.02397102       0.02297695       0.02111368       0.02014551       0.01956167       0.01812033       0.01707309       0.01540682       0.01379895       0.01224623       0.01099727       0.00958785       0.00852092       0.00754817       0.00675715       0.00424282       0.00057529       0.00000000       0.00000000       0.00000000       0.00000000
Si       4.21862000       9.42977000       1.27574000      -1.41979000       1.86682000      -0.00100439       0.28719080       0.26941125       0.26004626       0.23983796       0.05657589       0.05366119       0.05294098       0.05091049       0.05007764       0.04379059       0.04196339       0.04072460       0.03574633       0.03477124       0.03272644       0.03031977       0.02194660       0.01556152       0.01270084       0.01162192       0.01058993       0.00725143       0.00661993       0.00569819       0.00546730       0.00414873       0.00355127       0.00049779       0.00000000       0.00000000       0.00000000       0.00000000       0.08586210       0.06147315       0.05850226       0.05076488       0.04550570       0.04023258       0.03272763       0.03141363       0.02882549       0.02656802       0.02414995       0.02277210       0.02192362       0.02054500       0.01971321       0.01814922       0.01707989       0.01616432       0.01457775       0.01291074       0.01149192       0.01011591       0.00905359       0.00826613       0.00727349       0.00669739       0.00302135       0.00000000       0.00000000       0.00000000       0.00000000
Si       1.41592000       9.47354000       4.05934000      -0.31219700       0.00233634       0.24443000       0.25368004       0.24776362       0.24033693       0.23984825       0.05829693       0.04993210       0.04570769       0.04443957       0.03942654       0.03766876       0.03714789       0.03574633       0.03568393       0.03474515       0.03442425       0.03251236       0.01230685       0.01076906       0.01066257       0.00960736       0.00933655       0.00871340       0.00736656       0.00684807       0.00551828       0.00506693       0.00236683       0.00127165       0.00000000       0.00000000       0.00000000       0.00000000       0.08079034       0.05713847       0.05497218       0.04651929       0.04256679       0.03696603       0.03039955       0.02876346       0.02658973       0.02406108       0.02266016       0.02143227       0.01994231       0.01839518       0.01765973       0.01682313       0.01579413       0.01480716       0.01327815       0.01165750       0.01044463       0.00952453       0.00881151       0.00801810       0.00739641       0.00623373       0.00398475       0.00000000       0.00000000       0.00000000       0.00000000
Si       4.02327000       6.89928000       4.18971000       1.66373000      -1.20328000      -1.50335000       0.28966156       0.25652758       0.25230931       0.24657496       0.05829693       0.05804825       0.04899819       0.04629514       0.04490270       0.04275474       0.04196339       0.04141248       0.03998752       0.03950200       0.03396441       0.03168704       0.01379910       0.01314242       0.01269438       0.01195621       0.01184313       0.01159653       0.00850970       0.00447007       0.00374925       0.00350255       0.00320807       0.00285917       0.00000000       0.00000000       0.00000000       0.00000000       0.08573184       0.06113179       0.05903367       0.04988367       0.04535956       0.04039226       0.03289422       0.03113050       0.02921178       0.02665242       0.02421608       0.02288035       0.02127017       0.02004787       0.01945915       0.01853740       0.01726288       0.01633024       0.01425711       0.01255300       0.01149174       0.01066786       0.00928331       0.00813906       0.00741732       0.00647200       0.00578319       0.00000000       0.00000000       0.00000000       0.00000000
Si       5.39580000       5.40466000      -0.05102410      -1.28068000       1.70511000       1.28178000       0.29266172       0.25731186       0.24779517       0.24088108       0.05927854       0.05356269       0.04830755       0.04800814       0.04596478       0.04578867       0.04280269       0.04265632       0.04164254       0.03983452       0.03951986       0.03631360       0.01697901       0.01287687       0.01162192       0.01009224       0.00999789       0.00959612       0.00759253       0.00692295       0.00665965       0.00581151       0.00285917       0.00244269       0.00000000       0.00000000       0.00000000       0.00000000       0.08722274       0.06181507       0.05873393       0.05067289       0.04606790       0.04214151       0.03368071       0.03181528       0.02971426       0.02676678       0.02520541       0.02373491       0.02196228       0.02093330       0.02023333       0.01904484       0.01766377       0.01640823       0.01456170       0.01306738       0.01189096       0.01069290       0.00986582       0.00891648       0.00821374       0.00709593       0.00548838       0.00000000       0.00000000       0.00000000       0.00000000