64
Lattice="10.862 0.0 0.0 0.0 10.862 0.0 0.0 0.0 10.862" Properties=species:S:1:pos:R:3:atomic_forces_forces:R:3:quests_descriptor_descriptors:R:63 PBC="1 1 1" energy_energy=-263.87003 quests_descriptor_num_nearest_neighbors=32 quests_descriptor_cutoff=5.0 quests_descriptor_species="_JSON [\"species-agnostic\"]" pbc="T T T"
Si      11.00860000      -0.18318200      10.95320000      -0.46121200       1.64634000      -0.65899600       0.26732768       0.25754775       0.25630428       0.24421383       0.05651246       0.04968735       0.04954951       0.04895059       0.04584689       0.04576373       0.04030648       0.04029375       0.03500793       0.03406063       0.03127742       0.02937856       0.02650129       0.01538090       0.01315893       0.01159492       0.00936919       0.00810891       0.00727219       0.00638609       0.00308284       0.00307123       0.00179372       0.00033115       0.00000000       0.00000000       0.00000000       0.00000000       0.08341979       0.05973485       0.05708424       0.04923122       0.04374821       0.03939318       0.03162922       0.03004530       0.02813910       0.02598999       0.02386217       0.02229848       0.02133440       0.01997047       0.01903262       0.01761719       0.01669166       0.01579029       0.01431812       0.01273340       0.01083292       0.00979616       0.00870242       0.00761575       0.00615941       0.00501849       0.00244924       0.00000000       0.00000000       0.00000000       0.00000000
Si       2.75251000       2.69713000      -0.04369190      -0.80566600       0.96474700       0.54829500       0.27209327       0.25686356       0.24669062       0.23604602       0.05746551       0.05346787       0.05277751       0.05139634       0.05018540       0.04534330       0.04400337       0.04030648       0.04028454       0.03656894       0.03489076       0.02474691       0.01669309       0.01264313       0.01236301       0.01134069       0.01026801       0.00894925       0.00890029       0.00818997       0.00764375       0.00533155       0.00426170       0.00382864       0.00000000       0.00000000       0.00000000       0.00000000       0.08579567       0.06130621       0.05905679       0.05025911       0.04574109       0.04093076       0.03371980       0.03180295       0.02926557       0.02674223       0.02521961       0.02319981       0.02195985       0.02085930       0.01970730       0.01888513       0.01725630       0.01622997       0.01496447       0.01318058       0.01213342       0.01112656       0.01036606       0.00934760       0.00891149       0.00770209       0.00667088       0.00000000       0.00000000       0.00000000       0.00000000
Si      -0.03540900       2.90940000       2.55964000       0.23251200      -1.52498000       0.91817800       0.27440674       0.26252554       0.25134222       0.24102978       0.05940015       0.05494833       0.05130225       0.04934540       0.04887298       0.04534330       0.04377725       0.03500793       0.03211864       0.03210206       0.03143929       0.03097342       0.01656291       0.01365504       0.01334124       0.01157921       0.01057764       0.00875951       0.00737109       0.00736888       0.00715092       0.00685455       0.00201981       0.00187826       0.00000000       0.00000000       0.00000000       0.00000000       0.08504550       0.06055862       0.05867693       0.04909771       0.04464435       0.04078828       0.03278129       0.03078381       0.02812114       0.02608176       0.02418710       0.02260623       0.02140380       0.02032362       0.01894581       0.01770112       0.01692007       0.01618199       0.01444556       0.01320206       0.01219657       0.01084564       0.00978450       0.00883080       0.00807648       0.00628874       0.00517512       0.00000000       0.00000000       0.00000000       0.00000000
Si       2.75523000      10.90980000       2.80034000      -1.92790000       0.54913100      -0.83952600       0.28864918       0.28487621       0.27234774       0.23938586       0.05395181       0.05136924       0.04954951       0.04811150       0.04576747       0.04504029       0.04439285       0.04028454       0.03921022       0.03896688       0.03744481       0.03211864       0.01343343       0.01215043       0.01089938       0.00992734       0.00883587       0.00862179       0.00747144       0.00704192       0.00586005       0.00549834       0.00519175       0.00434880       0.00000000       0.00000000       0.00000000       0.00000000       0.08700388       0.06326849       0.05924993       0.05051288       0.04471512       0.04113093       0.03307185       0.03106222       0.02885242       0.02645765       0.02451190       0.02349904       0.02160020       0.02063640       0.01968662       0.01851164       0.01712510       0.01585629       0.01418330       0.01242504       0.01174786       0.01061569       0.00993341       0.00889947       0.00833332       0.00771968       0.00696709       0.00000000       0.00000000       0.00000000       0.00000000
Si       1.35504000       1.40639000       1.34641000       0.51162000      -0.42547300       0.44264700       0.25686356       0.25630428       0.25134222       0.23938586       0.06042698       0.04879768       0.04845179       0.04833490       0.04589676       0.04566890       0.04538609       0.04224373       0.04215030       0.04104831       0.03832725       0.03712401       0.01754784       0.01039440       0.00989237       0.00969591       0.00952583       0.00886739       0.00831010       0.00828053       0.00587141       0.00504091       0.00376496       0.00345737       0.00000000       0.00000000       0.00000000       0.00000000       0.08588716       0.06061440       0.05812544       0.05052402       0.04566564       0.04194012       0.03361040       0.03150458       0.02924105       0.02673702       0.02519041       0.02354535       0.02166584       0.02076063       0.01995061       0.01890840       0.01737801       0.01598124       0.01444574       0.01299220       0.01133214       0.01049897       0.00965716       0.00911583       0.00832750       0.00741772       0.00604512       0.00000000       0.00000000       0.00000000       0.00000000
Si       4.11021000       3.99425000       1.45168000       0.35885700       0.93493600      -1.46988000       0.26472068       0.26238936       0.24669062       0.22134076       0.07845364       0.05651427       0.04996121       0.04987594       0.04845179       0.04580890       0.04395567       0.04204635       0.03604040       0.03119505       0.03104069       0.02703176       0.01356671       0.01340130       0.01215043       0.01193735       0.01118985       0.01057764       0.01028822       0.00918843       0.00719820       0.00719561       0.00701435       0.00052893       0.00000000       0.00000000       0.00000000       0.00000000       0.08681698       0.06107728       0.05856645       0.05076766       0.04596323       0.04028117       0.03457239       0.03131127       0.02949555       0.02728171       0.02554679       0.02321581       0.02170712       0.02082950       0.01979560       0.01838865       0.01754634       0.01657593       0.01530279       0.01373291       0.01226603       0.01149829       0.01072586       0.00986557       0.00902593       0.00833910       0.00316896       0.00000000       0.00000000       0.00000000       0.00000000
Si       1.32444000       4.16837000       3.97543000      -0.08346560      -0.52113100      -0.65179000       0.28128234       0.26868241       0.26502107       0.26252554       0.06011019       0.05197553       0.05096035       0.04996121       0.04794091       0.04599687       0.04589676       0.04550345       0.04045060       0.04039235       0.03393119       0.03180916       0.01369022       0.01243681       0.01000012       0.00963498       0.00769633       0.00764375       0.00747144       0.00746878       0.00515192       0.00514487       0.00179681       0.00130537       0.00000000       0.00000000       0.00000000       0.00000000       0.08684259       0.06187408       0.05922677       0.05036901       0.04529408       0.04163565       0.03346243       0.03103715       0.02873535       0.02616223       0.02496799       0.02341376       0.02170484       0.02087108       0.01946233       0.01785678       0.01688133       0.01516586       0.01347176       0.01202888       0.01071029       0.00987596       0.00903122       0.00847195       0.00757716       0.00542655       0.00450258       0.00000000       0.00000000       0.00000000       0.00000000
Si       3.88953000       1.35734000       4.19899000       2.13608000       0.45369600       0.85960800       0.28864918       0.25710409       0.25212327       0.23163880       0.06174429       0.05290758       0.05237273       0.05087164       0.04991014       0.04599687       0.04580890       0.04566890       0.04548061       0.03673488       0.03521332       0.03352837       0.01934612       0.01460319       0.01178567       0.01030871       0.00966039       0.00715092       0.00698041       0.00694411       0.00590830       0.00533155       0.00432806       0.00278677       0.00000000       0.00000000       0.00000000       0.00000000       0.08783360       0.06222294       0.05912885       0.05140460       0.04671451       0.04240816       0.03427290       0.03237551       0.02993034       0.02749002       0.02531993       0.02383244       0.02245660       0.02155220       0.02051641       0.01911061       0.01761413       0.01631611       0.01465016       0.01300737       0.01189522       0.01069364       0.00956454       0.00897640       0.00826750       0.00765490       0.00601709       0.00000000       0.00000000       0.00000000       0.00000000
Si       5.38381000       0.06838430      10.93820000       0.20608000      -0.50455700       1.14906000       0.27575610       0.25710451       0.24565643       0.24191511       0.05346787       0.05335107       0.05010562       0.05003442       0.04811150       0.04581804       0.04553350       0.04312685       0.04312585       0.03970445       0.03187265       0.03187184       0.01356671       0.01243366       0.01241259       0.01090168       0.01039440       0.00943472       0.00791912       0.00789639       0.00636699       0.00590830       0.00570624       0.00455533       0.00000000       0.00000000       0.00000000       0.00000000       0.08724832       0.06110871       0.05860374       0.05094810       0.04597198       0.04161050       0.03372422       0.03160206       0.02953903       0.02696968       0.02476566       0.02342355       0.02192374       0.02094294       0.02017674       0.01883374       0.01766576       0.01638057       0.01487359       0.01320533       0.01213697       0.01109777       0.01037715       0.00948254       0.00896237       0.00817328       0.00688193       0.00000000       0.00000000       0.00000000       0.00000000
Si       8.17948000       2.66672000      10.84190000      -0.53015300       1.01664000      -0.43025500       0.26908834       0.26792627       0.26104012       0.24618856       0.06036880       0.05494833       0.05318488       0.04815983       0.04553350       0.04443067       0.04243112       0.04204711       0.04058342       0.03855315       0.03127742       0.02915339       0.01494526       0.01038604       0.00989237       0.00964439       0.00955385       0.00893664       0.00719820       0.00678767       0.00612497       0.00593280       0.00478009       0.00315030       0.00000000       0.00000000       0.00000000       0.00000000       0.08613376       0.06128247       0.05853203       0.04999391       0.04545746       0.04061345       0.03351005       0.03040441       0.02845444       0.02661594       0.02479129       0.02266924       0.02126290       0.02046616       0.01944131       0.01811606       0.01644278       0.01562682       0.01430008       0.01246447       0.01137934       0.01053947       0.00938031       0.00871818       0.00820832       0.00751766       0.00653193       0.00000000       0.00000000       0.00000000       0.00000000
Si       5.37067000       2.68529000       2.89864000      -0.80945300       0.85797900       0.29313500       0.28433418       0.26472068       0.26425216       0.25212327       0.06183482       0.05405842       0.05395181       0.05269385       0.04611095       0.04532558       0.04390366       0.04312585       0.03940775       0.03656894       0.03143527       0.02915339       0.01501827       0.01439984       0.01112967       0.01109184       0.01027760       0.01000012       0.00831010       0.00819295       0.00590857       0.00453868       0.00228971       0.00186727       0.00000000       0.00000000       0.00000000       0.00000000       0.08717503       0.06245587       0.05972512       0.05101148       0.04520123       0.04122148       0.03380252       0.03139895       0.02915434       0.02715959       0.02495203       0.02322036       0.02195072       0.02076758       0.01959222       0.01851991       0.01733268       0.01600525       0.01451160       0.01295127       0.01162431       0.01100864       0.00980995       0.00866787       0.00789980       0.00628819       0.00528309       0.00000000       0.00000000       0.00000000       0.00000000
Si       7.99640000       0.06049160       2.78319000       0.39305900       1.44601000      -1.33774000       0.26795502       0.25363506       0.24204021       0.22287798       0.05959328       0.05405842       0.05003442       0.04983691       0.04443067       0.03916659       0.03644782       0.03625688       0.03155998       0.03097342       0.02937856       0.02815451       0.01320775       0.01157679       0.01143781       0.01068971       0.00764215       0.00745529       0.00724674       0.00698041       0.00611014       0.00376496       0.00371286       0.00243276       0.00000000       0.00000000       0.00000000       0.00000000       0.08150652       0.05797005       0.05468059       0.04695172       0.04219282       0.03816812       0.03089131       0.02906935       0.02656777       0.02426135       0.02243687       0.02120241       0.02005202       0.01877408       0.01779640       0.01671648       0.01581993       0.01455374       0.01308209       0.01152712       0.01057975       0.00976991       0.00915106       0.00822545       0.00736986       0.00632612       0.00565447       0.00000000       0.00000000       0.00000000       0.00000000
Si       6.65027000       1.64549000       1.37730000       1.02608000      -3.33839000       0.09344360       0.28433418       0.26792627       0.24565643       0.22287798       0.07845364       0.05926800       0.05644068       0.05490898       0.05065558       0.03767310       0.03651463       0.03521332       0.03370202       0.03345356       0.03200057       0.03126563       0.01941247       0.01669309       0.01570927       0.01164264       0.00992734       0.00878689       0.00737582       0.00736888       0.00645598       0.00033115       0.00027696       0.00025113       0.00000000       0.00000000       0.00000000       0.00000000       0.08505247       0.05969370       0.05752130       0.04991634       0.04469494       0.03983915       0.03374773       0.03085916       0.02850199       0.02661342       0.02432053       0.02256242       0.02151260       0.02039715       0.01900707       0.01749586       0.01672150       0.01560550       0.01452768       0.01336753       0.01173838       0.00996808       0.00894503       0.00812144       0.00293433       0.00216256       0.00177734       0.00000000       0.00000000       0.00000000       0.00000000
Si       9.39034000       4.13680000       1.27785000      -0.08874610       0.79772700      -0.16028700       0.27440674       0.26908834       0.25894067       0.25707915       0.05490898       0.05469308       0.04980053       0.04752064       0.04419848       0.04398386       0.04251607       0.04201772       0.04127767       0.04039235       0.03712401       0.03210901       0.01785277       0.01176908       0.01158680       0.01027874       0.00922010       0.00780751       0.00611014       0.00590857       0.00525461       0.00382864       0.00325860       0.00179372       0.00000000       0.00000000       0.00000000       0.00000000       0.08604068       0.06133729       0.05855434       0.04978936       0.04458186       0.04116879       0.03284016       0.03146812       0.02865742       0.02594261       0.02440042       0.02280877       0.02139374       0.02036040       0.01954983       0.01842944       0.01695854       0.01550661       0.01385410       0.01221448       0.01085855       0.00999568       0.00898380       0.00800595       0.00743009       0.00638908       0.00511648       0.00000000       0.00000000       0.00000000       0.00000000
Si       6.78850000       4.08667000       4.09481000       0.71165000      -0.99849900       0.35343800       0.27622934       0.26425216       0.25443497       0.23551898       0.05926800       0.05449850       0.05203385       0.05151917       0.04987594       0.04584150       0.04419848       0.04005857       0.03935839       0.03755867       0.03734219       0.03352837       0.01629739       0.01381882       0.01378752       0.01143781       0.00911568       0.00875951       0.00722836       0.00708689       0.00697152       0.00652374       0.00593280       0.00409217       0.00000000       0.00000000       0.00000000       0.00000000       0.08789400       0.06243644       0.05914321       0.05153742       0.04679569       0.04224736       0.03390065       0.03213990       0.03003219       0.02690924       0.02561093       0.02406803       0.02242844       0.02141933       0.02023013       0.01935215       0.01833878       0.01651240       0.01490513       0.01360000       0.01239981       0.01125771       0.01046462       0.00964653       0.00883818       0.00814269       0.00694712       0.00000000       0.00000000       0.00000000       0.00000000
Si       9.54605000       1.45297000       4.01673000      -0.49888600      -0.26358200      -0.09413190       0.25326161       0.25185112       0.24204021       0.24102978       0.05361100       0.04953390       0.04879768       0.04794091       0.04584150       0.04398386       0.04186071       0.03767310       0.03716108       0.03605219       0.03071452       0.02933342       0.01857804       0.01517152       0.01038604       0.00883587       0.00819295       0.00810891       0.00806799       0.00673796       0.00587901       0.00434805       0.00378912       0.00218161       0.00000000       0.00000000       0.00000000       0.00000000       0.08247665       0.05874318       0.05579602       0.04859508       0.04308716       0.03935987       0.03161787       0.02982596       0.02780466       0.02553485       0.02341347       0.02186971       0.02093071       0.01991650       0.01888859       0.01780316       0.01622223       0.01516055       0.01370033       0.01242139       0.01128250       0.00998749       0.00901999       0.00832711       0.00771174       0.00663395       0.00567121       0.00000000       0.00000000       0.00000000       0.00000000
Si      10.63340000       5.54645000      -0.12831600       1.54833000      -0.39287700      -0.21286200       0.26062842       0.25894067       0.24533015       0.23455541       0.07220299       0.06002604       0.04934540       0.04815983       0.04653316       0.04406904       0.04253147       0.04121141       0.04022063       0.02987908       0.02709913       0.02474691       0.01919055       0.01402057       0.01262805       0.00856247       0.00818005       0.00729347       0.00530042       0.00515192       0.00375049       0.00345737       0.00289372       0.00052893       0.00000000       0.00000000       0.00000000       0.00000000       0.08310594       0.05849875       0.05681068       0.04818016       0.04396966       0.03933804       0.03241032       0.02973360       0.02796599       0.02582194       0.02370144       0.02169207       0.02045834       0.01954102       0.01862616       0.01740402       0.01581944       0.01443762       0.01304968       0.01135397       0.01026534       0.00936751       0.00815656       0.00737984       0.00632958       0.00564519       0.00304766       0.00000000       0.00000000       0.00000000       0.00000000
Si       2.92452000       8.13570000       0.06217200      -1.72067000       0.57987500      -0.26968100       0.26868489       0.25895087       0.25077190       0.24167120       0.05945040       0.05821153       0.05335107       0.05331807       0.05327823       0.05256596       0.04968735       0.03921022       0.03766770       0.03500674       0.03100582       0.02709913       0.01871362       0.01434447       0.01302041       0.01196191       0.00899781       0.00780976       0.00719561       0.00544298       0.00504091       0.00137349       0.00106895       0.00091308       0.00000000       0.00000000       0.00000000       0.00000000       0.08503027       0.06002753       0.05827295       0.04994237       0.04507729       0.04164390       0.03374340       0.03149436       0.02952931       0.02651047       0.02418258       0.02279094       0.02193265       0.02103974       0.01961850       0.01804814       0.01656915       0.01505779       0.01362282       0.01261311       0.01114677       0.00992596       0.00861970       0.00730825       0.00541541       0.00411360       0.00351382       0.00000000       0.00000000       0.00000000       0.00000000
Si       0.01471430       8.12860000       2.74983000      -1.21906000       1.04250000       0.17471400       0.26465752       0.24338294       0.23605144       0.22223509       0.05651246       0.04620442       0.04588073       0.04504299       0.04432386       0.04316043       0.04286123       0.04121141       0.03896688       0.03729034       0.03500674       0.03155998       0.01425081       0.01369022       0.01179757       0.01014973       0.00809752       0.00784468       0.00780751       0.00594610       0.00587901       0.00587141       0.00492790       0.00148899       0.00000000       0.00000000       0.00000000       0.00000000       0.08202033       0.05824375       0.05540341       0.04770944       0.04286102       0.03966814       0.03187862       0.02949111       0.02819781       0.02544906       0.02351953       0.02203007       0.02058326       0.01962141       0.01899176       0.01801772       0.01667155       0.01512014       0.01361635       0.01236925       0.01128935       0.01025989       0.00932420       0.00848054       0.00769927       0.00712386       0.00489377       0.00000000       0.00000000       0.00000000       0.00000000
Si       2.71915000       5.44838000       2.63142000      -1.08254000       0.50442200      -0.90448200       0.27266494       0.26502107       0.26238936       0.22345689       0.05796513       0.05327823       0.05130225       0.05087458       0.04620442       0.04437808       0.04400337       0.04390366       0.04381327       0.04329475       0.03971010       0.02987908       0.01501611       0.01402782       0.00964004       0.00952583       0.00829645       0.00757587       0.00697152       0.00694411       0.00572763       0.00525461       0.00495464       0.00395491       0.00000000       0.00000000       0.00000000       0.00000000       0.08685309       0.06187922       0.05811343       0.05051566       0.04596895       0.04169620       0.03380569       0.03198504       0.02903158       0.02643412       0.02550732       0.02346849       0.02179403       0.02082366       0.02012847       0.01911668       0.01733271       0.01543632       0.01385594       0.01272025       0.01134665       0.01043467       0.00973945       0.00876410       0.00812532       0.00771055       0.00644688       0.00000000       0.00000000       0.00000000       0.00000000
Si       1.24512000       6.89692000       1.21161000       1.09620000      -1.27307000       0.53891000       0.26465752       0.25077190       0.24533015       0.22345689       0.05760178       0.04471501       0.04401131       0.04303695       0.04127767       0.04096422       0.04045060       0.03915328       0.03892412       0.03466323       0.03379079       0.02703176       0.02650129       0.01644444       0.01498474       0.01157921       0.01028572       0.00736306       0.00654931       0.00605505       0.00586005       0.00477281       0.00426170       0.00332038       0.00000000       0.00000000       0.00000000       0.00000000       0.08269382       0.05923956       0.05602209       0.04821304       0.04346698       0.03958166       0.03153570       0.02966758       0.02753416       0.02546113       0.02395431       0.02232635       0.02093379       0.01968276       0.01914582       0.01845496       0.01712867       0.01570430       0.01468296       0.01335801       0.01205961       0.01048289       0.00950453       0.00878548       0.00795050       0.00702868       0.00627959       0.00000000       0.00000000       0.00000000       0.00000000
Si       4.04158000       9.56108000       1.55545000       1.76795000      -0.91835100      -1.28365000       0.28487621       0.25895087       0.24554905       0.24191511       0.06518419       0.06258826       0.05087164       0.05061374       0.04538609       0.04221911       0.04103781       0.04096422       0.03958035       0.03762578       0.03651463       0.03248869       0.01823754       0.01538090       0.01378544       0.01320775       0.01112967       0.01014973       0.00964004       0.00818997       0.00536390       0.00451700       0.00369870       0.00191707       0.00000000       0.00000000       0.00000000       0.00000000       0.08801772       0.06271347       0.05961604       0.05117008       0.04668475       0.04194890       0.03495485       0.03180887       0.02978681       0.02756229       0.02552727       0.02405529       0.02254955       0.02100372       0.02023161       0.01928117       0.01822079       0.01702659       0.01568155       0.01351566       0.01247712       0.01141540       0.01045447       0.00894246       0.00812893       0.00748979       0.00545423       0.00000000       0.00000000       0.00000000       0.00000000
Si       1.45612000       9.52993000       4.08831000      -0.88257900      -0.80105200       0.06171860       0.27234774       0.25232534       0.25215897       0.24338294       0.06258826       0.06174429       0.05297950       0.05120938       0.04104831       0.04018949       0.03948481       0.03929117       0.03892412       0.03716108       0.03343886       0.03135993       0.01640229       0.01315893       0.01137945       0.00937098       0.00881096       0.00801287       0.00780976       0.00764965       0.00757587       0.00336839       0.00243276       0.00201981       0.00000000       0.00000000       0.00000000       0.00000000       0.08504851       0.06055269       0.05792750       0.04919511       0.04497289       0.04060285       0.03325230       0.03089582       0.02799280       0.02587970       0.02442682       0.02282705       0.02164809       0.01988747       0.01885423       0.01818141       0.01657591       0.01532183       0.01418319       0.01295651       0.01122634       0.01015431       0.00913506       0.00849171       0.00773865       0.00607860       0.00499225       0.00000000       0.00000000       0.00000000       0.00000000
Si       4.10490000       6.68607000       3.97026000      -0.77241500      -1.22642000       1.81441000       0.30597666       0.27266494       0.26773166       0.25554441       0.05694019       0.05651427       0.05203385       0.05096035       0.05061374       0.04837505       0.04468089       0.04368085       0.04018949       0.03940541       0.03379079       0.02887651       0.01439984       0.01434447       0.01408746       0.01347347       0.01103481       0.00784468       0.00549834       0.00480757       0.00461178       0.00318783       0.00315747       0.00297603       0.00000000       0.00000000       0.00000000       0.00000000       0.08882500       0.06330932       0.06017869       0.05204290       0.04632586       0.04146828       0.03373276       0.03181569       0.02989825       0.02725598       0.02474807       0.02312235       0.02208654       0.02114938       0.01989829       0.01856241       0.01767772       0.01641458       0.01415302       0.01246035       0.01117733       0.01026585       0.00925949       0.00824828       0.00716800       0.00664877       0.00576814       0.00000000       0.00000000       0.00000000       0.00000000
Si       5.55331000       5.49933000       0.04094180       0.10747000      -2.30747000       0.65181300       0.28409618       0.26225545       0.23859344       0.22134076       0.05966536       0.05456683       0.05331807       0.05138998       0.05006025       0.04880763       0.04381327       0.04204711       0.03690429       0.03489076       0.03143527       0.02905675       0.01941247       0.01785277       0.01347347       0.01136725       0.00947155       0.00911568       0.00704731       0.00544560       0.00536390       0.00351911       0.00332038       0.00267347       0.00000000       0.00000000       0.00000000       0.00000000       0.08610818       0.06073628       0.05762082       0.04944898       0.04555419       0.04238529       0.03397951       0.03143288       0.02864689       0.02678605       0.02456623       0.02285694       0.02178516       0.02092623       0.01978879       0.01866631       0.01727113       0.01605282       0.01489560       0.01275444       0.01193800       0.01055312       0.00954434       0.00853666       0.00740297       0.00654118       0.00584891       0.00000000       0.00000000       0.00000000       0.00000000