64
Lattice="10.862 0.0 0.0 0.0 10.862 0.0 0.0 0.0 10.862" Properties=species:S:1:pos:R:3:masses:R:1:atomic-forces:R:3 potential-energy=-9867.999459361257 cauchy-stress="_JSON [[0.19918024314117808, 0.1479876843427069, -0.037217578666704616], [0.1479876843427069, 0.3205419127065192, 0.3642321137500421], [-0.037217578666704616, 0.3642321137500421, 0.2890614311465398]]" _metadata="_JSON {\"data_source\": \"AiiDA pk<1675>\", \"storage_id\": \"41b8b71bf9f54cf6b69f99f89ad4844f\"}" pbc="T T T"
Si      10.89020000       0.01386430      10.91900000      28.08500000       0.14907307      -0.08318933      -0.59239193
Si       2.78126000       2.67747000      -0.18782200      28.08500000       0.60083775      -0.31267082       1.33338153
Si      -0.01614280       2.76011000       2.79097000      28.08500000       0.85536230       0.37362859      -0.21145112
Si       2.73019000      10.90370000       2.58423000      28.08500000      -1.20954410       0.02538861       0.33535798
Si       1.35845000       1.48632000       1.27358000      28.08500000      -0.17235338      -0.07743211       0.44202122
Si       3.98999000       4.04650000       1.40091000      28.08500000       0.35217042      -1.27287474      -0.83331638
Si       1.49983000       4.14850000       4.12259000      28.08500000      -1.40249921       0.48028515      -0.63205737
Si       4.03176000       1.33348000       3.99029000      28.08500000       1.58412477      -1.00803595      -0.11665429
Si       5.55468000      -0.21824700      11.01680000      28.08500000      -0.26042883       0.95821877      -0.50838911
Si       8.22312000       2.70469000      10.82620000      28.08500000       0.54049935      -0.34191661       0.31944928
Si       5.42798000       2.60222000       2.58812000      28.08500000      -0.66045263       0.84175011       0.60084777
Si       8.15987000       0.14953100       2.87656000      28.08500000       0.15272404      -0.82608052      -0.42428909
Si       6.88947000       1.38316000       1.36276000      28.08500000       0.04244223      -0.94099597      -0.64626117
Si       9.45803000       4.13151000       1.46904000      28.08500000       0.73665370      -0.73997736      -1.30578203
Si       6.75772000       4.08235000       3.86126000      28.08500000      -0.17396701       0.01942546       0.16700472
Si       9.47112000       1.54313000       4.21992000      28.08500000      -0.20102607      -0.04177837      -0.40274839
Si      10.94500000       5.19720000      -0.11994500      28.08500000       0.04383088       0.19942170       1.70073741
Si       2.58638000       8.08071000      -0.11452300      28.08500000       0.27998670      -1.45982556       0.10508510
Si       0.06982360       8.17006000       2.78204000      28.08500000       0.01734183      -0.25793795      -0.38541144
Si       2.88711000       5.50084000       2.70204000      28.08500000      -1.64200750       0.33292726       0.68332490
Si       1.30127000       6.67581000       1.36891000      28.08500000       0.29375599       0.36310712      -0.45699712
Si       3.82455000       9.47458000       1.14800000      28.08500000       1.32332081      -0.28029446       1.68904711
Si       1.23909000       9.66969000       4.09826000      28.08500000       1.00860133      -0.00772822      -0.09063756
Si       4.01030000       6.83218000       4.22558000      28.08500000       0.24831560      -0.27310566       0.84367766
Si       5.36971000       5.26522000       0.06187070      28.08500000      -0.32614057       0.94107336      -0.58868671
Si       8.32737000       8.01244000      10.94610000      28.08500000      -0.77757126       0.46604484       0.52607932
Si       5.16177000       8.16312000       2.79663000      28.08500000       0.47241706       0.45086093      -1.64976812
Si       8.07773000       5.53330000       2.60292000      28.08500000      -0.83605614       0.76719455       0.03418076
Si       6.50392000       6.83993000       1.27257000      28.08500000       1.52376144       0.32249321       0.82856086
Si       9.61098000       9.61312000       1.55252000      28.08500000      -0.93474459      -0.31276904      -0.84773075
Si       6.70961000       9.46250000       3.93967000      28.08500000       1.16136985      -0.20347967       1.22667073
Si       9.44434000       6.87150000       3.96205000      28.08500000      -0.30010070      -0.21809562       1.16866458
Si      10.77930000      11.03210000       5.47294000      28.08500000       0.09607312      -1.00860570       0.91603982
Si       2.84093000       2.71332000       5.28298000      28.08500000      -0.51977086       0.13375213       1.04753735
Si      -0.00587929       2.71181000       8.05644000      28.08500000      -1.11135727       0.82633840      -0.43575107
Si       2.70518000       0.18231400       8.15839000      28.08500000       0.24907510      -0.63024499      -0.02106993
Si       1.40129000       1.52610000       6.71125000      28.08500000       0.22060656      -0.75919276      -0.27588476
Si       4.22265000       3.88761000       6.73439000      28.08500000      -1.73458238       1.70292336      -0.61780111
Si       1.46570000       3.96352000       9.35844000      28.08500000      -1.24747944      -0.35647471       0.27695589
Si       4.27165000       1.24475000       9.53242000      28.08500000       0.32032474       0.69355867      -0.09851747
Si       5.58338000      10.88520000       5.37091000      28.08500000      -1.48904435       0.12361761       0.70915575
Si       8.01477000       2.90778000       5.38949000      28.08500000      -0.20173646      -1.17092356       0.42504808
Si       5.52393000       2.91152000       8.17307000      28.08500000       0.05854993      -3.07945109       0.82013793
Si       8.08463000      -0.12468400       8.39981000      28.08500000      -0.38300695       0.24960552      -1.65712327
Si       6.81322000       1.39413000       6.88770000      28.08500000       0.48455395      -0.09258414      -0.24884807
Si       9.28620000       4.24930000       6.70043000      28.08500000       1.76116064      -0.96436627       0.63063477
Si       6.78762000       4.03329000       9.62095000      28.08500000       0.81329802       0.62678506      -0.00149510
Si       9.55575000       1.27734000       9.39641000      28.08500000       0.29038656       0.56304973       1.26626674
Si      10.74320000       5.51114000       5.40005000      28.08500000       1.44213997       0.31903225      -0.35247098
Si       2.66004000       8.36988000       5.53927000      28.08500000       0.78762042       0.28236189      -1.68090186
Si      10.97170000       8.03105000       8.08799000      28.08500000      -0.28719222       0.48314216       0.94728361
Si       2.64202000       5.29495000       8.02900000      28.08500000       1.85285312       0.89716664      -0.96710707
Si       1.54922000       6.85673000       6.66876000      28.08500000      -2.26965979      -1.57017936       0.74462412
Si       4.06356000       9.57465000       6.89002000      28.08500000       0.52639300       1.15562986      -0.66994334
Si       1.43296000       9.54996000       9.48811000      28.08500000      -1.33359828       0.23877346      -0.71490165
Si       4.03973000       6.62297000       9.47476000      28.08500000      -0.24055986       0.25064604      -0.14600960
Si       5.54014000       5.29731000       5.43437000      28.08500000      -0.69511650       1.16758986      -0.28913957
Si       8.15433000       8.07598000       5.62953000      28.08500000      -0.20573530       0.77300987      -1.93200376
Si       5.35519000       8.13469000       8.13245000      28.08500000      -0.33707933      -0.54741588       0.81624605
Si       8.11639000       5.38766000       8.24777000      28.08500000      -0.94924304       0.92598896       0.20283073
Si       6.70952000       6.78904000       6.86716000      28.08500000       0.51286180      -0.94324363      -0.02370223
Si       9.48941000       9.48831000       6.93818000      28.08500000       0.33012707       0.33653297      -0.37409602
Si       6.77551000       9.25329000       9.61745000      28.08500000       0.58894768       0.08271342       0.13257739
Si       9.59740000       6.57558000       9.56045000      28.08500000       0.18049170       1.40683281      -0.74008946
