64
Lattice="10.862 0.0 0.0 0.0 10.862 0.0 0.0 0.0 10.862" Properties=species:S:1:pos:R:3:atomic_forces_forces:R:3:ltau_forces_uq_score:R:1 co-id=CO_40945779738902460 energy_energy=-264.67225 energy_per_atom=F ltau_forces_uq_bins="_JSON [9.826158705261703e-06, 1.1027062170109953e-05, 1.2374733988202081e-05, 1.388711144604322e-05, 1.558432403465697e-05, 1.7488961369744564e-05, 1.9626373855691547e-05, 2.2025010095210678e-05, 2.4716795535485803e-05, 2.7737557390534585e-05, 3.1127501495435235e-05, 3.4931747439266745e-05, 3.92009290992939e-05, 4.399186856940476e-05, 4.9368332452677637e-05, 5.5401880584202616e-05, 6.217281848051923e-05, 6.977126619261002e-05, 7.82983577887071e-05, 8.786758743182653e-05, 9.860631996809534e-05, 0.00011065748613155361, 0.00012418148492831835, 0.00013935831852052977, 0.0001563899880250244, 0.00017550318211441527, 0.00019695229420541328, 0.00022102280839265498, 0.00024803509919425754, 0.0002783486956830725, 0.0003123670667585158, 0.00035054299125013993, 0.0003933845843281282, 0.00044146206043123326, 0.0004954153227255848, 0.0005559624801088134, 0.000623909405119375, 0.000700160459965258, 0.0007857305334337209, 0.0008817585488913106, 0.000989522623163398, 0.0011104570780553508, 0.001246171530935888, 0.0013984723184750493, 0.0015693865386831691, 0.0017611890312463712, 0.0019764326552623285, 0.0022179822673679007, 0.0024890528525018216, 0.0027932523148165534, 0.0031346294982791336, 0.003517728076107228, 0.003947647026299737, 0.004430108498181178, 0.0049715339732521865, 0.005579129734034302, 0.00626098277848512, 0.007026168456588584, 0.007884871261745434, 0.008848520384677058, 0.009929941834042498, 0.0111435291484686, 0.012505434972141823, 0.014033786043800957, 0.015748924460598036, 0.017673678428009317, 0.019833666099432202, 0.022257636549522425, 0.024977852419569537, 0.028030519327856575, 0.03145626776038425, 0.03530069385584423, 0.03961496628259934, 0.044456507285101664, 0.04988975696436252, 0.055987030964919623, 0.06282948298397104, 0.07050818491351256, 0.07912533899198845, 0.08879563809899231, 0.09964779229831235, 0.11182624194735377, 0.12549308017413968, 0.1408302103097339, 0.15804176699115657, 0.1773568331592601, 0.19903248911436056, 0.22335723421203718, 0.250654826741305, 0.2812885930932962, 0.31566626357475674, 0.3542453992302428, 0.3975394819030924, 0.44612474859288853, 0.5006478610735438, 0.5618345128533615, 0.6304990880342648, 0.7075555006279824, 0.794029358598705, 0.8910716145335489, 0.9999738846290095]" ltau_forces_uq_num_nearest_neighbors=1 ltau_forces_uq_index_type=IndexFlatL2 ltau_forces_uq_index_args=None pbc="T T T"
Si      10.72310000       0.28177000      10.78030000      -0.93634400      -0.57448200      -0.39052800       0.48717424
Si       2.70350000       2.70680000       0.03685430      -0.06544660      -0.32036800      -0.70712300       0.45037893
Si       0.09584860       2.59830000       2.81112000      -0.79358900       0.56652900       0.63834000       0.49904924
Si       2.81072000      10.83850000       2.66985000      -0.16164200      -0.61906100      -0.45518700       0.46018595
Si       1.32945000       1.32505000       1.37813000       1.04399000       0.05741660      -0.24365800       0.49769037
Si       4.01037000       4.11597000       1.34974000       0.83703600      -0.42630200       0.05162630       0.50918247
Si       1.39045000       4.02570000       4.15255000       0.49883400      -0.45572800       0.42225100       0.51488225
Si       4.18430000       1.38854000       3.94094000      -1.31846000      -0.77385800       1.56680000       0.47514917
Si       5.48617000       0.01030720      10.79610000      -1.53005000       0.57165100      -1.28519000       0.53725620
Si       8.18336000       2.80209000      10.89930000       0.20332500      -0.82936900      -0.16243600       0.48578759
Si       5.42597000       2.71828000       2.61261000       1.24511000       0.71095100      -0.15598600       0.44999182
Si       8.13817000      -0.13108200       2.48971000       0.64682900       1.56471000       1.77658000       0.48877403
Si       6.77832000       1.31033000       1.25171000       0.64898100       1.07040000       0.51351600       0.53593914
Si       9.62247000       4.02015000       1.54049000      -1.05453000      -1.15363000      -0.44997900       0.50112240
Si       6.85162000       4.05940000       4.03820000      -1.54264000       0.41607100      -0.44654600       0.50610578
Si       9.42440000       1.34418000       4.11135000       0.74873700      -1.26424000      -0.14552300       0.51010589
Si      10.94380000       5.19996000       0.16897500      -0.64973600       3.09573000      -0.64255300       0.51627556
Si       2.73899000       8.25597000      -0.04287800      -0.95521000      -0.63648400       0.21318000       0.50316773
Si       0.05888120       7.96576000       2.71954000      -0.12204000       1.41139000      -1.21423000       0.45546149
Si       2.79085000       5.40837000       2.84196000      -0.40319000       0.24342400      -0.07670460       0.48484834
Si       1.54635000       6.67188000       1.30596000      -0.92789000       0.60039000       0.77171700       0.53201450
Si       4.21862000       9.42977000       1.27574000      -1.41979000       1.86682000      -0.00100439       0.46223434
Si       1.41592000       9.47354000       4.05934000      -0.31219700       0.00233634       0.24443000       0.50929320
Si       4.02327000       6.89928000       4.18971000       1.66373000      -1.20328000      -1.50335000       0.48717424
Si       5.39580000       5.40466000      -0.05102410      -1.28068000       1.70511000       1.28178000       0.48106287
Si       8.00113000       8.15082000      10.91740000       0.90020800      -0.38255600      -0.45150900       0.49839181
Si       5.40033000       8.15148000       2.67308000       0.44271800      -0.95215500       1.35331000       0.52716642
Si       8.18194000       5.38471000       2.73789000      -0.43301100       0.06148730      -0.74666700       0.45060054
Si       6.74064000       6.74544000       1.40922000      -0.06651440      -0.58328200      -0.30357800       0.51823934
Si       9.52965000       9.48198000       1.15533000       1.19953000      -0.66803900       1.38314000       0.48042557
Si       6.85931000       9.45652000       3.95447000      -2.40306000       1.72104000       0.09248890       0.46823018
Si       9.49743000       6.64693000       4.06567000       0.27945900       1.32633000       0.26842600       0.55781402
Si      10.96920000      10.84680000       5.57614000      -1.35440000      -0.27469500      -2.40054000       0.49211152
Si       2.79839000       2.58982000       5.50542000      -0.51691100       0.25594100      -1.77214000       0.48882865
Si       0.04355170       2.89707000       8.02261000       0.75519500      -2.11012000       1.22727000       0.45995577
Si       2.62139000      -0.11471100       8.22613000       0.97225000       0.71748700      -0.64424900       0.44259870
Si       1.42300000       1.31347000       6.86971000      -0.38301200       0.79591200       0.29408500       0.47964663
Si       4.01883000       4.07859000       6.69812000       1.80820000       0.65321100       0.49633300       0.47967432
Si       1.33003000       4.07506000       9.57259000       1.25042000      -0.65809400      -1.27884000       0.51920374
Si       4.03381000       1.44975000       9.32371000       0.19824000      -1.28766000       2.19713000       0.52499165
Si       5.36216000      10.88900000       5.47144000       2.96950000       0.93088300      -1.49107000       0.46260493
Si       8.16760000       2.87557000       5.43039000       0.60729400      -1.32567000       0.41608800       0.48893738
Si       5.45689000       2.82295000       8.13306000      -0.47236400       0.63611100      -0.08908010       0.51810053
Si       8.15403000      -0.01542370       7.98942000      -0.73406100      -0.34515900       0.04053620       0.47209976
Si       6.84907000       1.56080000       6.82744000      -0.81331000      -1.87711000      -1.26825000       0.50168384
Si       9.47650000       4.12875000       6.90168000      -1.04754000       1.65400000      -1.31422000       0.48840642
Si       6.74227000       4.10350000       9.63491000       0.50716200      -0.58482400      -1.33411000       0.48106287
Si       9.34211000       1.54364000       9.15481000       1.32326000       0.36733800       2.37565000       0.50303204
Si      10.85620000       5.40148000       5.46999000      -0.55271600      -0.81609400      -0.04461560       0.51037268
Si       2.73447000       8.14031000       5.50848000      -2.03058000       0.01800920       0.67638100       0.52009748
Si      10.81570000       8.11898000       8.42669000      -0.83816000      -0.24486400      -2.89489000       0.45963833
Si       2.68773000       5.39230000       8.06992000      -0.05714260      -0.02371830       1.56882000       0.50412870
Si       1.24214000       6.67990000       6.87425000       0.70169400       2.51106000       0.04649060       0.55053546
Si       4.07079000       9.55066000       6.72552000      -0.52557200      -0.84945200       2.07734000       0.54925476
Si       1.14879000       9.62775000       9.63678000       1.55562000      -0.53871000       0.17305300       0.45963833
Si       3.99230000       6.84900000       9.45768000       0.85518300      -0.67514800      -0.41980100       0.47741678
Si       5.51342000       5.49091000       5.38981000      -0.98272900      -0.55896300       0.49527500       0.50529373
Si       8.05812000       8.12280000       5.23923000       1.28415000      -1.68394000       2.39430000       0.50929320
Si       5.45761000       8.18018000       8.13615000      -1.14482000       0.71428100       0.34025500       0.48290438
Si       8.03431000       5.47625000       8.28202000       1.63431000      -0.20463100       0.32263600       0.52863506
Si       6.75877000       6.79627000       6.90236000       0.70134900       0.44908700      -2.01603000       0.50956816
Si       9.47323000       9.40654000       6.66946000       0.67098000      -0.47464100       1.42344000       0.51734255
Si       6.82427000       9.54338000       9.48645000      -0.01074250      -0.09902020      -0.85124400       0.51217215
Si       9.48909000       6.75633000       9.73883000      -0.31323600      -1.21975000       0.05814640       0.50894561
