64
Lattice="10.862 0.0 0.0 0.0 10.862 0.0 0.0 0.0 10.862" Properties=species:S:1:pos:R:3:atomic_forces_forces:R:3 co-id=CO_2257349896453190445 energy_energy=-270.70853 energy_per_atom=F cauchy_stress_stress="_JSON [0.002060753263489388, 0.002414484551689696, 0.0023451526200175595, 0.010083193569466421, -0.009134738211753589, 0.005863477083637145]" cauchy_stress_volume_normalized=F pbc="T T T"
Si       0.14660000      10.67880000       0.09120000      -0.46098600       1.64627000      -0.65959300
Si       2.75251000       2.69713000      10.81830000      -0.80561800       0.96474800       0.54824200
Si      10.82660000       2.90940000       2.55964000       0.23248900      -1.52495000       0.91820900
Si       2.75523000       0.04780000       2.80034000      -1.92774000       0.54982900      -0.83948500
Si       1.35504000       1.40639000       1.34641000       0.51178000      -0.42556000       0.44293200
Si       4.11021000       3.99425000       1.45168000       0.35880200       0.93486400      -1.46971000
Si       1.32444000       4.16837000       3.97543000      -0.08331420      -0.52126500      -0.65176100
Si       3.88953000       1.35734000       4.19899000       2.13574000       0.45347500       0.85942200
Si       5.38381000       0.06838430       0.07620000       0.20622000      -0.50460600       1.14910000
Si       8.17948000       2.66672000      10.84190000      -0.53020800       1.01655000      -0.42957400
Si       5.37067000       2.68529000       2.89864000      -0.80940300       0.85796500       0.29296900
Si       7.99640000       0.06049160       2.78319000       0.39305000       1.44596000      -1.33762000
Si       6.65027000       1.64549000       1.37730000       1.02613000      -3.33807000       0.09323310
Si       9.39034000       4.13680000       1.27785000      -0.08898390       0.79752900      -0.16044400
Si       6.78850000       4.08667000       4.09481000       0.71151900      -0.99831500       0.35351000
Si       9.54605000       1.45297000       4.01673000      -0.49872600      -0.26361200      -0.09411420
Si      10.63340000       5.54645000      10.73370000       1.54880000      -0.39282200      -0.21278900
Si       2.92452000       8.13570000       0.06217200      -1.72055000       0.57985600      -0.26966900
Si       0.01471430       8.12860000       2.74983000      -1.21900000       1.04253000       0.17472300
Si       2.71915000       5.44838000       2.63142000      -1.08247000       0.50434000      -0.90451800
Si       1.24512000       6.89692000       1.21161000       1.09598000      -1.27314000       0.53876200
Si       4.04158000       9.56108000       1.55545000       1.76790000      -0.91840600      -1.28377000
Si       1.45612000       9.52993000       4.08831000      -0.88255100      -0.80130000       0.06181200
Si       4.10490000       6.68607000       3.97026000      -0.77231200      -1.22639000       1.81437000
Si       5.55331000       5.49933000       0.04094180       0.10753300      -2.30745000       0.65179200
Si       8.23813000       8.12656000      10.70160000      -1.15102000       1.68994000       1.29170000
Si       5.37023000       7.98130000       2.79049000       1.33490000       2.26565000      -2.26114000
Si       8.07152000       5.48892000       2.68478000       0.79273300      -0.78746000       0.76126500
Si       6.90315000       6.88493000       1.34555000      -0.96927200       0.06532450      -0.42534900
Si       9.39963000       9.62921000       1.37771000       0.62141800      -2.12755000       0.39280900
Si       6.68265000       9.45394000       3.98776000       1.71779000      -0.85625000       2.26587000
Si       9.45471000       6.71489000       4.15474000       0.48618300       0.83911700      -1.58642000
Si       0.04310000       0.07190000       5.38432000      -0.52552900      -0.57287200       0.45581300
Si       2.52117000       2.83123000       5.42443000       1.10594000      -0.42749700       1.23445000
Si       0.05806350       2.57699000       8.32115000      -0.66966500       1.55538000      -1.58499000
Si       2.72671000       0.04406590       8.15366000      -0.50143300       0.33986100      -0.08904030
Si       1.29035000       1.39592000       6.87107000       1.00468000      -0.56690900      -0.99806700
Si       4.04968000       4.08105000       6.87056000      -0.85776400      -0.34177000      -0.65852400
Si       1.29288000       4.10888000       9.45046000       0.60631900       0.43027600       1.99888000
Si       4.04895000       1.29027000       9.55524000       0.29628900       0.91649100      -0.72548600
Si       5.50078000      10.82680000       5.44775000      -3.15482000      -0.70696000      -0.99757800
Si       8.14007000       2.63068000       5.53000000      -0.34599000       0.45247300      -0.94530900
Si       5.37005000       2.68379000       8.16182000      -0.30348800      -0.55761000       0.12318000
Si       8.06158000       0.06207040       8.29689000       0.99784300      -0.48740100      -1.43955000
Si       6.62542000       1.27917000       6.78232000       2.51504000       1.29764000       1.56350000
Si       9.63021000       3.91835000       6.80076000       0.72304600      -1.63845000      -0.58479000
Si       6.79147000       4.01576000       9.41845000       0.94957500       0.57879800       0.53980700
Si       9.64342000       1.30227000       9.63233000      -1.17172000      -1.52354000       0.54986900
Si      10.77550000       5.29372000       5.32823000       1.32619000       1.16384000       1.40286000
Si       2.83141000       8.04738000       5.33514000       0.13190600       1.62080000      -0.02428000
Si       0.20320000       8.19536000       7.96393000      -0.53589400      -0.75245300       0.57841400
Si       2.80881000       5.47677000       8.30809000      -1.28052000      -0.28477700      -2.28257000
Si       1.49989000       6.72289000       6.57147000      -1.14018000      -1.18448000       1.83746000
Si       3.98732000       9.56507000       6.82377000       1.68146000      -1.60037000      -0.69542100
Si       1.52314000       9.47582000       9.47149000      -0.18194900      -0.90987900       0.60943000
Si       4.18167000       6.71737000       9.60980000      -0.06355560       1.15771000      -0.10674300
Si       5.38427000       5.31073000       5.40193000       0.15456900       1.34017000       0.35085600
Si       8.28513000       8.12936000       5.54741000      -2.34970000       0.59586000      -2.28438000
Si       5.39908000       8.12538000       8.23622000       0.27900400      -0.05403480      -1.93917000
Si       8.30747000       5.21096000       7.94442000      -2.86622000       2.48789000       1.51071000
Si       6.81523000       6.75264000       6.67385000      -0.49332600      -0.65300600       1.81255000
Si       9.52411000       9.52390000       6.80601000       0.50104700       1.89399000       0.73861900
Si       6.68071000       9.53750000       9.55098000       0.80611900      -0.25616300       0.56771100
Si       9.44365000       6.87850000       9.22167000       1.31593000      -0.69979000      -0.54297700
