ITEM: TIMESTEP
0
ITEM: NUMBER OF ATOMS
64
ITEM: BOX BOUNDS pp pp pp
0.0000000000000000e+00 1.0862000000000000e+01
0.0000000000000000e+00 1.0862000000000000e+01
0.0000000000000000e+00 1.0862000000000000e+01
ITEM: ATOMS id type x y z
2 1 2.7035 2.7068 0.0368543
3 1 0.0958486 2.5983 2.81112
5 1 1.32945 1.32505 1.37813
11 1 5.42597 2.71828 2.61261
13 1 6.77832 1.31033 1.25171
10 1 8.18336 2.80209 0.0373
17 1 0.0818 5.19996 0.168975
20 1 2.79085 5.40837 2.84196
21 1 1.54635 6.67188 1.30596
6 1 4.01037 4.11597 1.34974
29 1 6.74064 6.74544 1.40922
14 1 9.62247 4.02015 1.54049
28 1 8.18194 5.38471 2.73789
4 1 2.81072 10.8385 2.66985
19 1 0.0588812 7.96576 2.71954
22 1 4.21862 9.42977 1.27574
27 1 5.40033 8.15148 2.67308
12 1 8.13817 10.7309 2.48971
26 1 8.00113 8.15082 0.0554
30 1 9.52965 9.48198 1.15533
34 1 2.79839 2.58982 5.50542
37 1 1.423 1.31347 6.86971
8 1 4.1843 1.38854 3.94094
41 1 5.36216 0.027 5.47144
45 1 6.84907 1.5608 6.82744
16 1 9.4244 1.34418 4.11135
42 1 8.1676 2.87557 5.43039
7 1 1.39045 4.0257 4.15255
53 1 1.24214 6.6799 6.87425
15 1 6.85162 4.0594 4.0382
24 1 4.02327 6.89928 4.18971
38 1 4.01883 4.07859 6.69812
57 1 5.51342 5.49091 5.38981
61 1 6.75877 6.79627 6.90236
32 1 9.49743 6.64693 4.06567
46 1 9.4765 4.12875 6.90168
49 1 10.8562 5.40148 5.46999
23 1 1.41592 9.47354 4.05934
33 1 0.1072 10.8468 5.57614
50 1 2.73447 8.14031 5.50848
31 1 6.85931 9.45652 3.95447
54 1 4.07079 9.55066 6.72552
58 1 8.05812 8.1228 5.23923
62 1 9.47323 9.40654 6.66946
35 1 0.0435517 2.89707 8.02261
9 1 5.48617 0.0103072 10.7961
40 1 4.03381 1.44975 9.32371
43 1 5.45689 2.82295 8.13306
1 1 10.7231 0.28177 10.7803
48 1 9.34211 1.54364 9.15481
39 1 1.33003 4.07506 9.57259
52 1 2.68773 5.3923 8.06992
25 1 5.3958 5.40466 10.811
47 1 6.74227 4.1035 9.63491
56 1 3.9923 6.849 9.45768
60 1 8.03431 5.47625 8.28202
64 1 9.48909 6.75633 9.73883
18 1 2.73899 8.25597 10.8191
36 1 2.62139 10.7473 8.22613
55 1 1.14879 9.62775 9.63678
59 1 5.45761 8.18018 8.13615
63 1 6.82427 9.54338 9.48645
44 1 8.15403 10.8466 7.98942
51 1 10.8157 8.11898 8.42669
ITEM: TIMESTEP
5
ITEM: NUMBER OF ATOMS
64
ITEM: BOX BOUNDS pp pp pp
-2.1492962603328003e-02 1.0883492962603327e+01
-2.1539936216650624e-02 1.0883539936216653e+01
-2.1565926468461782e-02 1.0883565926468464e+01
ITEM: ATOMS id type x y z
2 1 2.71805 2.65683 0.00419902
3 1 0.082152 2.58657 2.84886
5 1 1.30418 1.31674 1.39111
11 1 5.43913 2.71728 2.61655
13 1 6.7863 1.29631 1.21051
10 1 8.19051 2.7787 0.0176293
17 1 0.0665608 5.22695 0.1526
20 1 2.77337 5.39599 2.8149
21 1 1.51194 6.67829 1.31372
6 1 4.00582 4.1014 1.3257
29 1 6.75035 6.7392 1.40535
14 1 9.65166 4.01936 1.53327
28 1 8.16241 5.38059 2.69417
4 1 2.79101 10.8432 2.65063
19 1 0.0510153 8.00022 2.715
22 1 4.1964 9.47572 1.25391
27 1 5.40723 8.14627 2.69869
12 1 8.15607 10.7713 2.4787
26 1 8.01207 8.13506 0.0214791
30 1 9.54517 9.4916 1.14378
34 1 2.78605 2.59618 5.47136
37 1 1.39035 1.32446 6.86535
8 1 4.17602 1.35949 3.93569
41 1 5.37419 -0.00548935 5.47483
45 1 6.86147 1.53367 6.81099
16 1 9.43095 1.30743 4.10925
42 1 8.18453 2.85279 5.43996
7 1 1.35862 4.01035 4.12925
53 1 1.21402 6.72687 6.88154
15 1 6.8485 4.06528 4.03046
24 1 4.04743 6.88445 4.18655
38 1 4.00565 4.05471 6.68706
57 1 5.51718 5.47659 5.38648
61 1 6.77943 6.80454 6.88955
32 1 9.51417 6.64008 4.07745
46 1 9.4971 4.10724 6.93531
49 1 10.8752 5.41817 5.45847
23 1 1.37777 9.48262 4.05446
33 1 0.07109 10.8649 5.57602
50 1 2.69187 8.1703 5.51039
31 1 6.87711 9.52051 3.9858
54 1 4.07174 9.56691 6.76001
58 1 8.07963 8.11701 5.26797
62 1 9.48854 9.40465 6.68031
35 1 0.012211 2.88357 8.04122
9 1 5.47155 -0.00538339 10.8133
40 1 3.99456 1.42734 9.33707
43 1 5.44685 2.78815 8.14323
1 1 10.7669 0.280882 10.7931
48 1 9.37092 1.5458 9.15582
39 1 1.33575 4.07427 9.59365
52 1 2.68347 5.38835 8.08385
25 1 5.4043 5.4091 10.8502
47 1 6.7436 4.10499 9.64906
56 1 3.9845 6.85711 9.4571
60 1 8.05005 5.52833 8.27007
64 1 9.52443 6.77145 9.72438
18 1 2.72718 8.24936 10.8712
36 1 2.60949 10.7572 8.24181
55 1 1.1661 9.63165 9.62689
59 1 5.44544 8.2063 8.13626
63 1 6.82863 9.54531 9.47765
44 1 8.16346 10.8791 7.99641
51 1 10.8305 8.12183 8.43305
ITEM: TIMESTEP
10
ITEM: NUMBER OF ATOMS
64
ITEM: BOX BOUNDS pp pp pp
-7.7771351794733157e-02 1.0939771351794734e+01
-7.7845560266233349e-02 1.0939845560266235e+01
-7.8056268739950418e-02 1.0940056268739951e+01
ITEM: ATOMS id type x y z
2 1 2.72287 2.5825 -0.0673419
3 1 0.0205004 2.54943 2.88379
5 1 1.26882 1.27159 1.37609
11 1 5.46063 2.69767 2.6062
13 1 6.81135 1.27471 1.15234
10 1 8.22458 2.73055 -0.041066
17 1 0.0119074 5.28258 0.090626
20 1 2.73921 5.38647 2.77945
21 1 1.44612 6.71692 1.30152
6 1 3.99507 4.07364 1.2792
29 1 6.7691 6.74003 1.37326
14 1 9.68682 3.9938 1.49168
28 1 8.15813 5.38392 2.61755
4 1 2.74683 10.877 2.61984
19 1 0.00719136 8.06641 2.6882
22 1 4.1513 9.55885 1.20832
27 1 5.40713 8.15698 2.71891
12 1 8.1998 10.8609 2.47424
26 1 8.04744 8.13715 -0.0501808
30 1 9.60553 9.52257 1.12702
34 1 2.75904 2.57805 5.42251
37 1 1.32077 1.31319 6.86246
8 1 4.15319 1.29307 3.9297
41 1 5.40032 -0.0655162 5.46971
45 1 6.86917 1.45548 6.79711
16 1 9.4678 1.22941 4.09972
42 1 8.22795 2.79588 5.44429
7 1 1.30661 3.99128 4.10558
53 1 1.16294 6.80458 6.90318
15 1 6.82665 4.05885 4.01455
24 1 4.06587 6.87137 4.17075
38 1 3.99808 4.04105 6.69086
57 1 5.51219 5.4587 5.38764
61 1 6.8127 6.82193 6.86936
32 1 9.56667 6.66677 4.07842
46 1 9.53491 4.08645 6.9783
49 1 10.9349 5.43573 5.44955
23 1 1.30554 9.52077 4.03422
33 1 -0.0144014 10.9065 5.55911
50 1 2.61344 8.21432 5.51432
31 1 6.89333 9.62613 4.0188
54 1 4.0661 9.61302 6.80597
58 1 8.126 8.12591 5.31362
62 1 9.53742 9.42726 6.70444
35 1 -0.0471348 2.83507 8.08902
9 1 5.43865 -0.0446984 10.8502
40 1 3.95068 1.37202 9.39182
43 1 5.43375 2.73294 8.17303
1 1 10.8327 0.245168 10.8394
48 1 9.43143 1.52438 9.19314
39 1 1.32878 4.0574 9.62146
52 1 2.6697 5.39132 8.12622
25 1 5.38849 5.43524 10.928
47 1 6.76325 4.08716 9.67802
56 1 3.96942 6.86883 9.47923
60 1 8.1044 5.57687 8.26921
64 1 9.58905 6.77904 9.73104
18 1 2.68532 8.24774 10.9584
36 1 2.59696 10.8086 8.27198
55 1 1.16538 9.64998 9.6428
59 1 5.42196 8.24734 8.1559
63 1 6.8462 9.57593 9.48301
44 1 8.19473 10.9382 8.02173
51 1 10.8762 8.13625 8.43325
ITEM: TIMESTEP
15
ITEM: NUMBER OF ATOMS
64
ITEM: BOX BOUNDS pp pp pp
-1.4958308702825285e-01 1.1011583087028253e+01
-1.4974703365095188e-01 1.1011747033650952e+01
-1.5006145568584195e-01 1.1012061455685840e+01
ITEM: ATOMS id type x y z
2 1 2.7192 2.50149 -0.15152
3 1 -0.0633051 2.49968 2.91178
5 1 1.22672 1.21008 1.34615
11 1 5.48356 2.66764 2.58664
13 1 6.84097 1.24481 1.08584
10 1 8.26864 2.67398 -0.117299
17 1 -0.0585329 5.34534 0.00969254
20 1 2.69933 5.37926 2.73949
21 1 1.36951 6.76508 1.27867
6 1 3.98051 4.04114 1.22195
29 1 6.78715 6.74893 1.3269
14 1 9.72982 3.95805 1.43269
28 1 8.16595 5.38993 2.53206
4 1 2.69423 10.9235 2.58334
19 1 -0.0548448 8.14411 2.65178
22 1 4.10241 9.65426 1.1531
27 1 5.405 8.17911 2.73372
12 1 8.25302 10.9687 2.46698
26 1 8.09219 8.15179 -0.136797
30 1 9.68332 9.56488 1.10347
34 1 2.72696 2.54719 5.37013
37 1 1.24278 1.28719 6.85761
8 1 4.12545 1.21139 3.9208
41 1 5.42957 -0.138714 5.46137
45 1 6.86709 1.35591 6.78389
16 1 9.51634 1.1322 4.08651
42 1 8.27971 2.7274 5.4421
7 1 1.24759 3.9743 4.08429
53 1 1.10497 6.89183 6.93067
15 1 6.8001 4.04435 3.99697
24 1 4.07734 6.86283 4.15103
38 1 3.99109 4.03026 6.70206
57 1 5.50269 5.44088 5.39232
61 1 6.8469 6.84604 6.84776
32 1 9.63258 6.70787 4.07235
46 1 9.57243 4.0803 7.01052
49 1 11.0145 5.456 5.44037
23 1 1.22038 9.57274 4.00871
33 1 -0.118979 10.9592 5.5364
50 1 2.52407 8.26397 5.518
31 1 6.91063 9.74641 4.04878
54 1 4.05575 9.67053 6.85266
58 1 8.1801 8.14357 5.36005
62 1 9.60122 9.46037 6.73462
35 1 -0.10415 2.77073 8.15401
9 1 5.40285 -0.097796 10.8988
40 1 3.90837 1.30431 9.46192
43 1 5.42017 2.67249 8.21119
1 1 10.9099 0.188364 10.9039
48 1 9.49884 1.47816 9.261
39 1 1.31868 4.03798 9.66188
52 1 2.65132 5.39731 8.1773
25 1 5.36414 5.46746 11.0203
47 1 6.78677 4.06383 9.71546
56 1 3.95037 6.8826 9.51338
60 1 8.171 5.62012 8.27727
64 1 9.66535 6.78309 9.75332
18 1 2.63347 8.25115 11.0617
36 1 2.58167 10.8791 8.30351
55 1 1.15082 9.67698 9.676
59 1 5.39606 8.29335 8.18431
63 1 6.86843 9.6206 9.49991
44 1 8.236 11.007 8.05601
51 1 10.9375 8.15983 8.43093
ITEM: TIMESTEP
20
ITEM: NUMBER OF ATOMS
64
ITEM: BOX BOUNDS pp pp pp
-2.2661212411868359e-01 1.1088612124118683e+01
-2.2701675543865640e-01 1.1089016755438660e+01
-2.2730974799404180e-01 1.1089309747994040e+01
ITEM: ATOMS id type x y z
2 1 2.71062 2.41965 -0.237322
3 1 -0.154691 2.44531 2.93624
5 1 1.18032 1.1434 1.31038
11 1 5.50685 2.63443 2.5625
13 1 6.87064 1.21061 1.01637
10 1 8.31613 2.61738 -0.198997
17 1 -0.134624 5.40771 -0.0759204
20 1 2.65773 5.37309 2.69808
21 1 1.29049 6.81398 1.25182
6 1 3.9641 4.00738 1.16055
29 1 6.80373 6.76207 1.27515
14 1 9.7779 3.91909 1.36988
28 1 8.17946 5.39501 2.44558
4 1 2.63909 10.9737 2.54493
19 1 -0.124506 8.22373 2.61102
22 1 4.0549 9.7525 1.09469
27 1 5.4035 8.20622 2.74504
12 1 8.30934 11.0811 2.4559
26 1 8.13907 8.17073 -0.227316
30 1 9.76692 9.6115 1.07449
34 1 2.69223 2.51111 5.31692
37 1 1.16674 1.25409 6.85053
8 1 4.09692 1.12465 3.90939
41 1 5.45844 -0.216674 5.45331
45 1 6.86032 1.2521 6.76889
16 1 9.56654 1.02821 4.07267
42 1 8.33482 2.65813 5.4376
7 1 1.18674 3.95925 4.06456
53 1 1.04464 6.98011 6.96001
15 1 6.77545 4.02723 3.97882
24 1 4.08445 6.85636 4.13152
38 1 3.98378 4.01968 6.71478
57 1 5.49324 5.42349 5.39852
61 1 6.87817 6.87383 6.8264
32 1 9.70111 6.75191 4.06164
46 1 9.60679 4.08751 7.02928
49 1 11.1008 5.47538 5.43239
23 1 1.13183 9.63116 3.98202
33 1 -0.228179 11.0169 5.51296
50 1 2.43251 8.31609 5.52164
31 1 6.92943 9.87103 4.07618
54 1 4.04316 9.73179 6.89838
58 1 8.23543 8.16401 5.40402
62 1 9.67046 9.49594 6.76754
35 1 -0.153253 2.70531 8.22327
9 1 5.36697 -0.155704 10.9508
40 1 3.86824 1.23182 9.53424
43 1 5.40718 2.61158 8.25199
1 1 10.992 0.121525 10.9757
48 1 9.56368 1.41204 9.35
39 1 1.30802 4.01882 9.70977
52 1 2.63053 5.40343 8.22951
25 1 5.33838 5.50152 11.1169
47 1 6.80974 4.04 9.75703
56 1 3.92987 6.89793 9.55194
60 1 8.2409 5.66046 8.29016
64 1 9.74456 6.78604 9.78496
18 1 2.57847 8.2582 11.1703
36 1 2.56378 10.955 8.33411
55 1 1.12904 9.70838 9.7176
59 1 5.3708 8.34026 8.2155
63 1 6.89258 9.67004 9.52229
44 1 8.28146 11.079 8.0928
51 1 11.0039 8.18945 8.42901
