64
Lattice="10.862 0 0 0 10.862 0 0 0 10.862 " PBC="1 1 1" Properties=species:S:1:pos:R:3:forces:R:3 energy="-261.89156"
Si    1.08902e+01   1.38643e-02   1.09190e+01  1.82063e-01   5.13473e-02  -9.09030e-01
Si    2.78126e+00   2.67747e+00  -1.87822e-01  6.10418e-01  -1.98880e-01   1.68487e+00
Si   -1.61428e-02   2.76011e+00   2.79097e+00  9.86577e-01   7.88379e-01  -6.80193e-02
Si    2.73019e+00   1.09037e+01   2.58423e+00 -1.94026e+00   2.78931e-02   6.05086e-01
Si    1.35845e+00   1.48632e+00   1.27358e+00  7.41217e-02  -3.42920e-01   6.11693e-01
Si    3.98999e+00   4.04650e+00   1.40091e+00  7.81178e-01  -1.71219e+00  -1.23457e+00
Si    1.49983e+00   4.14850e+00   4.12259e+00 -1.57301e+00   5.59361e-01  -1.04164e+00
Si    4.03176e+00   1.33348e+00   3.99029e+00  2.12759e+00  -1.04895e+00  -2.37137e-01
Si    5.55468e+00  -2.18247e-01   1.10168e+01 -3.58607e-01   1.35464e+00  -1.10059e+00
Si    8.22312e+00   2.70469e+00   1.08262e+01  5.89632e-01  -3.35967e-01   5.53992e-01
Si    5.42798e+00   2.60222e+00   2.58812e+00 -7.02702e-01   1.21932e+00   8.53956e-01
Si    8.15987e+00   1.49531e-01   2.87656e+00  3.71953e-01  -9.21048e-01  -8.60998e-01
Si    6.88947e+00   1.38316e+00   1.36276e+00 -5.63022e-02  -1.21925e+00  -5.98680e-01
Si    9.45803e+00   4.13151e+00   1.46904e+00  1.00699e+00  -1.11436e+00  -1.90368e+00
Si    6.75772e+00   4.08235e+00   3.86126e+00 -2.92947e-01   6.43302e-02   3.17503e-01
Si    9.47112e+00   1.54313e+00   4.21992e+00 -4.20502e-01  -1.11658e-01  -7.28686e-01
Si    1.09450e+01   5.19720e+00  -1.19945e-01 -2.62161e-02   4.95355e-01   2.10796e+00
Si    2.58638e+00   8.08071e+00  -1.14523e-01  3.87051e-01  -1.84951e+00   1.96225e-01
Si    6.98236e-02   8.17006e+00   2.78204e+00 -1.04203e-01  -1.96358e-01  -5.17998e-01
Si    2.88711e+00   5.50084e+00   2.70204e+00 -2.34670e+00   1.32218e-01   8.79256e-01
Si    1.30127e+00   6.67581e+00   1.36891e+00  5.39842e-01   4.62494e-01  -5.88760e-01
Si    3.82455e+00   9.47458e+00   1.14800e+00  1.79829e+00  -4.82568e-01   2.32147e+00
Si    1.23909e+00   9.66969e+00   4.09826e+00  1.55061e+00   7.11358e-02  -6.89289e-02
Si    4.01030e+00   6.83218e+00   4.22558e+00  3.19143e-01  -3.71445e-01   1.10096e+00
Si    5.36971e+00   5.26522e+00   6.18707e-02 -5.80254e-01   1.15080e+00  -8.03615e-01
Si    8.32737e+00   8.01244e+00   1.09461e+01 -8.05322e-01   5.88894e-01   8.41565e-01
Si    5.16177e+00   8.16312e+00   2.79663e+00  3.64601e-01   4.69482e-01  -2.33516e+00
Si    8.07773e+00   5.53330e+00   2.60292e+00 -9.91388e-01   8.06037e-01   1.41390e-01
Si    6.50392e+00   6.83993e+00   1.27257e+00  1.88175e+00   3.31142e-01   1.08603e+00
Si    9.61098e+00   9.61312e+00   1.55252e+00 -1.27884e+00  -7.03804e-01  -1.10931e+00
Si    6.70961e+00   9.46250e+00   3.93967e+00  1.75935e+00  -5.03122e-01   2.05574e+00
Si    9.44434e+00   6.87150e+00   3.96205e+00 -3.57421e-01  -2.17400e-01   1.46871e+00
Si    1.07793e+01   1.10321e+01   5.47294e+00  8.11603e-02  -1.14187e+00   1.25679e+00
Si    2.84093e+00   2.71332e+00   5.28298e+00 -6.86747e-01   9.73191e-02   1.50565e+00
Si   -5.87929e-03   2.71181e+00   8.05644e+00 -1.38795e+00   1.39662e+00  -7.81434e-01
Si    2.70518e+00   1.82314e-01   8.15839e+00  4.51277e-01  -9.78211e-01  -1.05846e-01
Si    1.40129e+00   1.52610e+00   6.71125e+00  1.88838e-01  -1.00329e+00  -3.08070e-01
Si    4.22265e+00   3.88761e+00   6.73439e+00 -2.12493e+00   2.66669e+00  -6.65479e-01
Si    1.46570e+00   3.96352e+00   9.35844e+00 -1.59475e+00  -4.42606e-01   2.10189e-01
Si    4.27165e+00   1.24475e+00   9.53242e+00  3.99587e-01   1.08172e+00  -2.68298e-01
Si    5.58338e+00   1.08852e+01   5.37091e+00 -2.28349e+00   8.93741e-02   9.78461e-01
Si    8.01477e+00   2.90778e+00   5.38949e+00 -3.07130e-01  -1.36496e+00   5.84356e-01
Si    5.52393e+00   2.91152e+00   8.17307e+00  5.15210e-02  -4.23980e+00   1.09296e+00
Si    8.08463e+00  -1.24684e-01   8.39981e+00 -3.99965e-01   3.14004e-01  -2.37653e+00
Si    6.81322e+00   1.39413e+00   6.88770e+00  7.35905e-01  -8.27023e-02  -1.63200e-01
Si    9.28620e+00   4.24930e+00   6.70043e+00  2.44586e+00  -1.63709e+00   1.04443e+00
Si    6.78762e+00   4.03329e+00   9.62095e+00  9.61448e-01   9.11646e-01  -1.67148e-01
Si    9.55575e+00   1.27734e+00   9.39641e+00  2.88683e-01   8.79784e-01   1.96101e+00
Si    1.07432e+01   5.51114e+00   5.40005e+00  1.79721e+00   4.58547e-01  -4.67197e-01
Si    2.66004e+00   8.36988e+00   5.53927e+00  9.89607e-01   1.57667e-01  -2.18557e+00
Si    1.09717e+01   8.03105e+00   8.08799e+00 -4.26317e-01   5.61724e-01   1.38906e+00
Si    2.64202e+00   5.29495e+00   8.02900e+00  2.88221e+00   6.62988e-01  -9.56698e-01
Si    1.54922e+00   6.85673e+00   6.66876e+00 -2.89946e+00  -1.93207e+00   7.61356e-01
Si    4.06356e+00   9.57465e+00   6.89002e+00  7.11279e-01   1.56535e+00  -1.07937e+00
Si    1.43296e+00   9.54996e+00   9.48811e+00 -1.67487e+00   1.85087e-01  -8.33105e-01
Si    4.03973e+00   6.62297e+00   9.47476e+00 -5.04419e-01   4.28797e-01  -2.78600e-01
Si    5.54014e+00   5.29731e+00   5.43437e+00 -1.08161e+00   1.47238e+00  -4.21026e-01
Si    8.15433e+00   8.07598e+00   5.62953e+00 -6.68471e-01   1.27948e+00  -2.62028e+00
Si    5.35519e+00   8.13469e+00   8.13245e+00 -2.61575e-01  -8.64123e-01   1.27460e+00
Si    8.11639e+00   5.38766e+00   8.24777e+00 -1.28553e+00   1.04401e+00   5.85832e-02
Si    6.70952e+00   6.78904e+00   6.86716e+00  7.02223e-01  -1.31743e+00   1.29283e-01
Si    9.48941e+00   9.48831e+00   6.93818e+00  5.04196e-01   5.49579e-01  -5.27483e-01
Si    6.77551e+00   9.25329e+00   9.61745e+00  5.98052e-01   2.25293e-01   4.03054e-01
Si    9.59740e+00   6.57558e+00   9.56045e+00  3.01656e-01   1.73271e+00  -1.16403e+00
