64
Lattice="10.862 0 0 0 10.862 0 0 0 10.862 " PBC="1 1 1" Properties=species:S:1:pos:R:3:forces:R:3 energy="-264.5584"
Si    1.08588e+01   3.41598e-02   1.08162e+01  6.56005e-01   2.27488e-01   2.79798e-01
Si    2.73055e+00   2.77429e+00   6.03678e-02 -6.20135e-02  -5.94106e-01  -2.48558e-02
Si   -9.27538e-02   2.78812e+00   2.68701e+00 -5.38263e-01  -5.80042e-01   9.85997e-02
Si    2.55128e+00   1.09703e+01   2.79642e+00  5.37571e-01  -1.56186e+00  -2.48607e-01
Si    1.25941e+00   1.41665e+00   1.41600e+00  3.53799e-01   3.91582e-01  -1.29635e+00
Si    4.07132e+00   4.19696e+00   1.42414e+00  6.27594e-01  -1.17781e+00  -2.01846e+00
Si    1.32000e+00   4.03040e+00   3.94536e+00  2.21690e-01   1.29763e+00   1.53906e+00
Si    4.10937e+00   1.31933e+00   3.99275e+00 -1.11690e+00   3.27476e-01   1.61874e+00
Si    5.44565e+00  -8.94865e-02   1.09781e+01 -1.35549e+00  -1.11826e+00  -1.58989e+00
Si    8.12662e+00   2.64359e+00   1.10161e+01  1.51063e+00   5.70107e-01  -8.45536e-01
Si    5.35318e+00   2.64950e+00   2.61184e+00  1.57006e+00   1.05132e+00   1.11837e+00
Si    8.15455e+00  -1.50442e-01   2.58780e+00  7.90044e-01   2.29176e+00   1.05149e+00
Si    6.75569e+00   1.23545e+00   1.32130e+00  3.25185e-01   8.10422e-01   1.52959e+00
Si    9.57596e+00   4.27904e+00   1.33331e+00 -2.01071e+00  -1.23428e+00   4.24319e-01
Si    6.70667e+00   4.08295e+00   4.18891e+00 -9.85014e-02  -3.66130e-01  -2.93135e+00
Si    9.45267e+00   1.34718e+00   4.07680e+00 -1.07004e+00   4.32985e-01  -4.98035e-01
Si    1.09424e+01   5.43892e+00  -1.11381e-01  8.04081e-02   7.56908e-01  -3.93956e-01
Si    2.80475e+00   8.07568e+00  -7.37326e-02 -1.46277e+00   1.15490e+00   1.58650e-01
Si    2.87737e-02   8.10925e+00   2.70889e+00 -9.66255e-01   1.47584e+00   1.87136e+00
Si    2.67570e+00   5.45185e+00   2.61559e+00 -1.30969e+00   1.54347e+00   8.75604e-01
Si    1.24544e+00   6.95785e+00   1.28337e+00  2.35144e+00  -2.62636e+00  -7.70514e-01
Si    3.93019e+00   9.43160e+00   1.50463e+00  8.78754e-01   1.11271e+00  -4.96781e-01
Si    1.23730e+00   9.57965e+00   4.20128e+00  2.91281e-01  -5.51585e-02  -8.73739e-01
Si    4.05006e+00   6.78348e+00   4.03126e+00 -6.23002e-02   7.65936e-01  -3.10195e-01
Si    5.39114e+00   5.43801e+00  -1.34747e-01  1.96933e+00  -1.16233e+00   2.97561e+00
Si    8.37170e+00   8.11398e+00   1.08825e+01 -1.23941e+00   1.03147e+00   6.39212e-01
Si    5.50536e+00   8.24432e+00   2.81818e+00  1.03230e-01  -8.83263e-01  -7.49789e-01
Si    7.97972e+00   5.57318e+00   2.68999e+00  2.15040e+00  -2.38533e+00   1.49389e+00
Si    6.86116e+00   6.83363e+00   1.27305e+00 -2.27676e+00   1.21675e+00  -5.20176e-01
Si    9.66115e+00   9.53298e+00   1.33235e+00 -5.16217e-01  -1.04955e+00   1.58194e-01
Si    6.90742e+00   9.65382e+00   4.15556e+00 -1.35986e+00  -1.56892e+00  -2.06138e-01
Si    9.54014e+00   6.71391e+00   4.11134e+00 -2.12091e+00   2.26156e+00  -1.52149e+00
Si    1.07529e+01   1.09612e+01   5.55861e+00 -1.25174e-01  -1.00549e+00  -1.99449e+00
Si    2.66854e+00   2.70600e+00   5.40566e+00  1.02424e+00  -1.72139e-01  -5.08743e-01
Si   -1.32784e-01   2.72329e+00   8.16064e+00  6.68813e-01  -1.63102e+00  -9.01659e-02
Si    2.68466e+00   2.41062e-02   8.23376e+00  8.97978e-01   7.99319e-01  -1.78154e+00
Si    1.29268e+00   1.34987e+00   6.72820e+00  7.54783e-01   1.01940e+00   2.30761e+00
Si    4.18821e+00   3.94447e+00   6.83747e+00 -6.91386e-01   1.12251e+00  -1.75568e+00
Si    1.40202e+00   3.97112e+00   9.38901e+00 -1.14574e-02   1.27108e+00   3.30862e-01
Si    4.10172e+00   1.36091e+00   9.54680e+00  3.33290e-01  -1.17203e-01   7.74088e-01
Si    5.39108e+00   1.08279e+01   5.48053e+00  1.19440e+00   1.55130e+00   1.26368e-01
Si    8.02123e+00   2.72971e+00   5.49467e+00  1.26136e+00  -7.88950e-01  -2.93901e-01
Si    5.54777e+00   2.67069e+00   8.17849e+00 -5.41797e-01   1.65612e-01   1.63880e+00
Si    8.14100e+00  -1.59841e-01   8.16480e+00  3.35262e-01  -4.09052e-02  -7.35020e-01
Si    6.83107e+00   1.33164e+00   6.91802e+00 -4.45508e-01  -1.32160e+00  -1.44200e+00
Si    9.42089e+00   4.04352e+00   6.82962e+00  2.24499e-01   1.35264e+00  -9.39952e-01
Si    6.88373e+00   4.00711e+00   9.62140e+00 -3.43169e-01   9.28129e-01  -1.59019e+00
Si    9.38492e+00   1.22247e+00   9.50373e+00  5.55125e-01   1.72731e+00   3.78598e-01
Si    1.08033e+01   5.47357e+00   5.39353e+00  1.40483e+00  -2.51321e+00   6.26075e-01
Si    2.76414e+00   8.24627e+00   5.38873e+00  1.26466e+00   8.20511e-01  -2.82564e-01
Si    1.09944e+01   8.16439e+00   7.99780e+00  1.10467e-01  -6.37986e-02   3.41264e-01
Si    2.76464e+00   5.39723e+00   7.99077e+00 -9.35076e-01  -5.96779e-01  -6.96244e-03
Si    1.47178e+00   6.84565e+00   6.52243e+00 -8.59067e-01  -1.26913e+00   2.40938e+00
Si    4.19197e+00   9.51480e+00   6.92683e+00 -1.43679e+00  -1.08596e+00   3.04454e-01
Si    1.35830e+00   9.57417e+00   9.46366e+00  2.41940e-01  -1.69249e+00   7.79991e-01
Si    4.03135e+00   6.57240e+00   9.49779e+00 -6.81641e-01   2.05256e+00  -1.20545e+00
Si    5.41034e+00   5.49188e+00   5.37777e+00 -5.95917e-01  -5.64055e-01   1.82378e+00
Si    8.12524e+00   8.18874e+00   5.45071e+00  5.36961e-01  -1.29735e+00  -8.46738e-01
Si    5.46857e+00   7.96966e+00   8.31767e+00 -2.11609e-01   1.40598e+00  -7.18022e-01
Si    8.14623e+00   5.53267e+00   8.12521e+00  3.32139e-01  -7.53367e-01   1.38458e+00
Si    6.76499e+00   6.82719e+00   6.78501e+00 -6.99754e-02  -3.10587e-01  -3.26581e-01
Si    9.54309e+00   9.41506e+00   6.69894e+00 -4.53728e-01   9.25985e-01   1.78283e+00
Si    6.90358e+00   9.38815e+00   9.58779e+00 -1.21045e+00  -3.25193e-02   5.65895e-01
Si    9.61407e+00   6.94290e+00   9.47399e+00  6.20669e-01  -2.24272e+00  -1.59320e+00
